LAMMPS (3 Aug 2023 - Development - )
Created orthogonal box = (0 0 0) to (14 14 14)
  1 by 1 by 1 MPI processor grid
Lattice spacing in x,y,z = 1.1006424 1.1006424 1.1006424
Created 2197 atoms
  using lattice units in orthogonal box = (0 0 0) to (14 14 14)
  create_atoms CPU = 0.001 seconds
Generated 0 of 0 mixed pair_coeff terms from geometric mixing rule
Neighbor list info ...
  update: every = 1 steps, delay = 0 steps, check = yes
  max neighbors/atom: 2000, page size: 100000
  master list distance cutoff = 2.8
  ghost atom cutoff = 2.8
  binsize = 1.4, bins = 10 10 10
  1 neighbor lists, perpetual/occasional/extra = 1 0 0
  (1) pair lj/cut, perpetual
      attributes: half, newton on
      pair build: half/bin/atomonly/newton
      stencil: half/bin/3d
      bin: standard
Setting up Verlet run ...
  Unit style    : lj
  Current step  : 0
  Time step     : 0.005
Per MPI rank memory allocation (min/avg/max) = 3.241 | 3.241 | 3.241 Mbytes
   Step          Temp          E_pair         E_mol          TotEng         Press     
         0   1.5            5.5678596      0              7.8168354      40.273094    
        10   5.2507536     -0.37103708     0              7.5015083      24.318136    
        20   6.0445296     -1.5766693      0              7.4859983      21.286961    
        30   6.4980453     -2.2517093      0              7.4909221      19.366041    
        40   6.6103999     -2.4198352      0              7.4912514      19.082789    
        50   6.5121482     -2.2715786      0              7.4921976      19.812183    
        60   6.3856427     -2.0843225      0              7.4897817      20.577575    
        70   6.0647925     -1.6065767      0              7.4864714      22.386784    
        80   6.0473409     -1.5857228      0              7.4811598      22.645818    
        90   6.1096539     -1.6797581      0              7.4805513      22.36482     
       100   6.1855469     -1.7899913      0              7.4841059      21.874049    
       110   6.3125736     -1.9753406      0              7.48921        21.15058     
       120   6.43975       -2.1637818      0              7.4914465      20.210761    
       130   6.5680383     -2.3523721      0              7.4952011      19.439601    
       140   6.4845408     -2.2264988      0              7.4958851      19.714706    
       150   6.6494003     -2.4746118      0              7.4949488      18.688169    
       160   6.6206761     -2.4278258      0              7.4986681      18.66058     
       170   6.5877426     -2.3754635      0              7.5016526      18.731108    
       180   6.6029853     -2.3999233      0              7.5000465      18.59665     
       190   6.5185569     -2.2790341      0              7.4943507      19.0119      
       200   6.4386812     -2.1588108      0              7.4948149      19.488003    
       210   6.4116688     -2.1172252      0              7.4959004      19.653328    
       220   6.4707188     -2.2044061      0              7.4972542      19.361203    
       230   6.4738385     -2.2100011      0              7.4963367      19.364057    
       240   6.4368155     -2.1509693      0              7.4998592      19.536659    
       250   6.4699775     -2.2015364      0              7.4990124      19.340954    
       260   6.4838054     -2.2195001      0              7.5017811      19.219318    
       270   6.4873545     -2.223754       0              7.5028485      19.142478    
       280   6.5218733     -2.279221       0              7.4991361      19.070435    
       290   6.4841452     -2.2225903      0              7.4992004      19.255236    
       300   6.490552      -2.2325108      0              7.4988857      19.284349    
       310   6.4872952     -2.2293255      0              7.4971881      19.41138     
       320   6.4346874     -2.1455646      0              7.5020733      19.757697    
       330   6.4654514     -2.1971466      0              7.4966163      19.589981    
       340   6.4416554     -2.1625972      0              7.4954879      19.671722    
       350   6.4130636     -2.1178729      0              7.4973439      19.848327    
       360   6.2863995     -1.930078       0              7.4952292      20.425689    
       370   6.4863317     -2.2286135      0              7.4964556      19.434988    
       380   6.4638203     -2.1934985      0              7.4978187      19.47254     
       390   6.4797509     -2.2145726      0              7.5006296      19.329677    
       400   6.4865378     -2.2243627      0              7.5010153      19.239033    
       410   6.50019       -2.245471       0              7.500376       19.149276    
       420   6.4800641     -2.2159836      0              7.4996882      19.193203    
       430   6.4164691     -2.1172154      0              7.5031075      19.513828    
       440   6.5421736     -2.3101011      0              7.4986926      18.926933    
       450   6.4383652     -2.1510635      0              7.5020884      19.422245    
       460   6.3682371     -2.0476479      0              7.5003598      19.778227    
       470   6.4347368     -2.14789        0              7.4998219      19.477527    
       480   6.4622778     -2.1866942      0              7.5023103      19.2253      
       490   6.4633323     -2.1938         0              7.4967857      19.238596    
       500   6.4654757     -2.1942675      0              7.4995318      19.303771    
       510   6.4826527     -2.2226142      0              7.4969388      19.265793    
       520   6.4859389     -2.2264699      0              7.4980102      19.280197    
       530   6.4371648     -2.152971       0              7.4983812      19.443066    
       540   6.499488      -2.2426671      0              7.5021273      19.13527     
       550   6.4708013     -2.2024118      0              7.4993723      19.328599    
       560   6.539941      -2.3054641      0              7.4999822      18.896014    
       570   6.4726561     -2.2034968      0              7.5010682      19.239209    
       580   6.4428055     -2.1608102      0              7.4989992      19.491945    
       590   6.4396636     -2.1568021      0              7.4982966      19.56411     
       600   6.3713052     -2.052401       0              7.5002069      19.895127    
       610   6.3439918     -2.0139009      0              7.4977554      20.003974    
       620   6.4851707     -2.2233809      0              7.4999475      19.321531    
       630   6.4664805     -2.1988855      0              7.4964202      19.342497    
       640   6.4278992     -2.1400505      0              7.4974097      19.539042    
       650   6.447629      -2.1679408      0              7.4991006      19.427778    
       660   6.308718      -1.9551227      0              7.5036471      20.073016    
       670   6.5592342     -2.3332547      0              7.5011183      18.8008      
       680   6.5144494     -2.2673505      0              7.4998758      19.108859    
       690   6.4668835     -2.1935454      0              7.5023646      19.294232    
       700   6.5265312     -2.2873872      0              7.4979536      19.020923    
       710   6.3936223     -2.0871197      0              7.4989485      19.72286     
       720   6.4796954     -2.2185507      0              7.4965683      19.210055    
       730   6.4822004     -2.2196455      0              7.4992294      19.243014    
       740   6.4303941     -2.1448655      0              7.4963353      19.484776    
       750   6.4395929     -2.1525331      0              7.5024597      19.422145    
       760   6.4594029     -2.1825023      0              7.5021918      19.302626    
       770   6.405736      -2.1034457      0              7.5007848      19.639549    
       780   6.4812767     -2.2195548      0              7.4979351      19.283093    
       790   6.4330308     -2.1436267      0              7.5015273      19.525287    
       800   6.4379753     -2.1547733      0              7.4977941      19.461562    
       810   6.3423469     -2.0079183      0              7.5012717      20.08232     
       820   6.3615391     -2.0367162      0              7.5012492      19.922353    
       830   6.4781347     -2.2128273      0              7.4999518      19.212408    
       840   6.4796063     -2.2144236      0              7.500562       19.250249    
       850   6.4793163     -2.2170709      0              7.4974798      19.231173    
       860   6.4413084     -2.1549109      0              7.5026539      19.377045    
       870   6.4106919     -2.1134763      0              7.4981846      19.52094     
       880   6.4392341     -2.1551952      0              7.4992596      19.45631     
       890   6.3728424     -2.0519612      0              7.5029514      19.800933    
       900   6.4673354     -2.1954909      0              7.5010967      19.395605    
       910   6.4369758     -2.1504876      0              7.5005813      19.490349    
       920   6.3813339     -2.0680392      0              7.4996049      19.759579    
       930   6.3955091     -2.0892781      0              7.4996189      19.622118    
       940   6.4434881     -2.1611849      0              7.4996479      19.349596    
       950   6.4780204     -2.2125989      0              7.5000088      19.178165    
       960   6.3457425     -2.0137602      0              7.5005209      19.911053    
       970   6.4729626     -2.205261       0              7.4997635      19.245206    
       980   6.4168356     -2.1184387      0              7.5024336      19.485546    
       990   6.4112936     -2.1108432      0              7.5017199      19.559479    
      1000   6.4857029     -2.2251532      0              7.4989731      19.225361    
Loop time of 1.60375 on 1 procs for 1000 steps with 2197 atoms

Performance: 269369.287 tau/day, 623.540 timesteps/s, 1.370 Matom-step/s
99.6% CPU use with 1 MPI tasks x no OpenMP threads

MPI task timing breakdown:
Section |  min time  |  avg time  |  max time  |%varavg| %total
---------------------------------------------------------------
Pair    | 0.82078    | 0.82078    | 0.82078    |   0.0 | 51.18
Neigh   | 0.72729    | 0.72729    | 0.72729    |   0.0 | 45.35
Comm    | 0.032562   | 0.032562   | 0.032562   |   0.0 |  2.03
Output  | 0.00081045 | 0.00081045 | 0.00081045 |   0.0 |  0.05
Modify  | 0.012462   | 0.012462   | 0.012462   |   0.0 |  0.78
Other   |            | 0.009846   |            |       |  0.61

Nlocal:           2197 ave        2197 max        2197 min
Histogram: 1 0 0 0 0 0 0 0 0 0
Nghost:           3832 ave        3832 max        3832 min
Histogram: 1 0 0 0 0 0 0 0 0 0
Neighs:          79640 ave       79640 max       79640 min
Histogram: 1 0 0 0 0 0 0 0 0 0

Total # of neighbors = 79640
Ave neighs/atom = 36.249431
Neighbor list builds = 331
Dangerous builds = 0
Generated 0 of 0 mixed pair_coeff terms from geometric mixing rule
Setting up Verlet run ...
  Unit style    : lj
  Current step  : 1000
  Time step     : 0.005
Per MPI rank memory allocation (min/avg/max) = 3.244 | 3.244 | 3.244 Mbytes
   Step          Temp          E_pair         E_mol          TotEng         Press     
      1000   6.4857029     -2.2251532      0              7.4989731      19.225361    
      1010   5.3070224     -2.4775621      0              5.4793482      17.316519    
      1020   4.2898052     -3.0642657      0              3.3675133      14.231684    
      1030   3.4796095     -3.5579139      0              1.6591247      11.608528    
      1040   2.8922751     -3.9691885      0              0.36724948     9.4300601    
      1050   2.4318442     -4.2655924      0             -0.61948638     7.8084834    
      1060   2.0865075     -4.4896703      0             -1.3613336      6.5766212    
      1070   1.847257      -4.6947548      0             -1.9251305      5.4685871    
      1080   1.6806248     -4.8845852      0             -2.3647955      4.4988319    
      1090   1.545762      -5.0190955      0             -2.7015079      3.8117606    
      1100   1.4600441     -5.1329283      0             -2.943859       3.2644182    
      1110   1.373389      -5.1573339      0             -3.098188       3.0794017    
      1120   1.3496308     -5.1802561      0             -3.1567314      2.9502853    
      1130   1.409595      -5.2335914      0             -3.1201613      2.7525789    
      1140   1.4649179     -5.2135844      0             -3.0172077      2.8762765    
      1150   1.5024406     -5.140959       0             -2.8883239      3.2286659    
      1160   1.5406933     -5.0826021      0             -2.772614       3.4948833    
      1170   1.6137166     -5.1178199      0             -2.6983468      3.4212637    
      1180   1.5650644     -5.0436175      0             -2.6970895      3.7115698    
      1190   1.5753072     -5.1172758      0             -2.7553905      3.4317306    
      1200   1.4786115     -5.0746688      0             -2.857761       3.5208292    
      1210   1.4578211     -5.1273434      0             -2.941607       3.2534897    
      1220   1.4330339     -5.1416955      0             -2.9931231      3.1442978    
      1230   1.4579708     -5.1861046      0             -3.0001438      2.9847555    
      1240   1.48193       -5.1926664      0             -2.9707831      2.9582523    
      1250   1.4978945     -5.1721998      0             -2.9263808      3.0683358    
      1260   1.4974092     -5.1266862      0             -2.8815947      3.2989589    
      1270   1.5127067     -5.1052583      0             -2.837231       3.4458401    
      1280   1.522621      -5.0840628      0             -2.8011709      3.5339233    
      1290   1.5527584     -5.1128396      0             -2.784762       3.446678     
      1300   1.527554      -5.092355       0             -2.802067       3.4937711    
      1310   1.5159695     -5.1168019      0             -2.8438826      3.3824775    
      1320   1.4726637     -5.1018684      0             -2.8938782      3.4339238    
      1330   1.4691219     -5.1264323      0             -2.9237526      3.3008245    
      1340   1.4995165     -5.1766972      0             -2.9284463      3.0716528    
      1350   1.489755      -5.160245       0             -2.9266297      3.1386964    
      1360   1.45613       -5.0987483      0             -2.9155475      3.378915     
      1370   1.5118628     -5.1439654      0             -2.8772033      3.2313191    
      1380   1.5059478     -5.1006404      0             -2.8427469      3.3953642    
      1390   1.5335507     -5.1172627      0             -2.8179837      3.3251431    
      1400   1.5302945     -5.1122822      0             -2.8178853      3.3400503    
      1410   1.5181989     -5.1161589      0             -2.8398971      3.3297532    
      1420   1.5073546     -5.1384084      0             -2.8784057      3.2466273    
      1430   1.4643301     -5.1149683      0             -2.9194728      3.297733     
      1440   1.4931913     -5.1817191      0             -2.9429516      3.0469029    
      1450   1.4772672     -5.1690176      0             -2.9541254      3.0934779    
      1460   1.4848834     -5.1786068      0             -2.9522955      3.0571257    
      1470   1.4880937     -5.1703163      0             -2.9391917      3.097974     
      1480   1.4831606     -5.1386633      0             -2.914935       3.2226059    
      1490   1.521775      -5.1631591      0             -2.8815356      3.1710109    
      1500   1.5244603     -5.1430816      0             -2.8574321      3.2371125    
      1510   1.5123201     -5.1197299      0             -2.8522824      3.3040437    
      1520   1.5046413     -5.1156674      0             -2.8597327      3.3032357    
      1530   1.502162      -5.1285293      0             -2.8763119      3.2558668    
      1540   1.5196194     -5.174731       0             -2.8963395      3.0708827    
      1550   1.453065      -5.09614        0             -2.9175345      3.3454856    
      1560   1.4734754     -5.1233237      0             -2.9141166      3.2805008    
      1570   1.4957841     -5.1331841      0             -2.8905293      3.25942      
      1580   1.5116175     -5.1288563      0             -2.8624621      3.2763707    
      1590   1.5298113     -5.1366359      0             -2.8429634      3.2613734    
      1600   1.5041092     -5.1000617      0             -2.8449248      3.4266955    
      1610   1.5061407     -5.1126         0             -2.8544172      3.3976612    
      1620   1.4987725     -5.1128835      0             -2.8657481      3.346427     
      1630   1.499457      -5.1225225      0             -2.8743607      3.2649255    
      1640   1.4830039     -5.1018564      0             -2.8783631      3.3375122    
      1650   1.5289962     -5.1704178      0             -2.8779673      3.0982312    
      1660   1.5163452     -5.1673842      0             -2.8939017      3.1152763    
      1670   1.4810025     -5.1419335      0             -2.9214409      3.2273293    
      1680   1.4573531     -5.1209358      0             -2.9359011      3.3182537    
      1690   1.4985565     -5.1669078      0             -2.9200961      3.1415622    
      1700   1.5054128     -5.1542076      0             -2.8971162      3.190301     
      1710   1.4925864     -5.1145231      0             -2.8766627      3.3537928    
      1720   1.5190328     -5.1384416      0             -2.8609296      3.3162091    
      1730   1.5056628     -5.1098081      0             -2.8523419      3.4286743    
      1740   1.5151248     -5.1221913      0             -2.8505386      3.3369797    
      1750   1.4988073     -5.1028608      0             -2.8556732      3.3761612    
      1760   1.501182      -5.1104896      0             -2.8597415      3.3556785    
      1770   1.5056476     -5.1297267      0             -2.8722833      3.2936867    
      1780   1.4974907     -5.1291023      0             -2.8838887      3.2766492    
      1790   1.5028024     -5.1449497      0             -2.8917721      3.2065375    
      1800   1.4980702     -5.1492905      0             -2.903208       3.195418     
      1810   1.4813836     -5.13062        0             -2.9095561      3.2209972    
      1820   1.5132536     -5.173331       0             -2.9044838      3.0503384    
      1830   1.4982185     -5.1539762      0             -2.9076714      3.157909     
      1840   1.4673756     -5.1081298      0             -2.9080682      3.362889     
      1850   1.4836915     -5.1105808      0             -2.8860566      3.3653989    
      1860   1.5083027     -5.1139398      0             -2.8525155      3.341065     
      1870   1.5516941     -5.1585061      0             -2.8320244      3.2142295    
      1880   1.5215596     -5.1214205      0             -2.84012        3.377463     
      1890   1.5118462     -5.1295983      0             -2.8628611      3.3377566    
      1900   1.4972112     -5.1387742      0             -2.8939796      3.3034754    
      1910   1.4997551     -5.1717457      0             -2.9231369      3.1356644    
      1920   1.4650602     -5.1442855      0             -2.9476954      3.1845711    
      1930   1.4524261     -5.1321654      0             -2.9545179      3.2035258    
      1940   1.4654298     -5.12643        0             -2.9292858      3.222098     
      1950   1.4997962     -5.1248364      0             -2.8761661      3.2650471    
      1960   1.5367032     -5.1249061      0             -2.8209005      3.2867655    
      1970   1.54985       -5.1111376      0             -2.7874207      3.3538643    
      1980   1.5775238     -5.1625597      0             -2.7973511      3.2133812    
      1990   1.5140614     -5.1286211      0             -2.8585627      3.3220126    
      2000   1.4833685     -5.1554717      0             -2.9314317      3.1960814    
Loop time of 1.17496 on 1 procs for 1000 steps with 2197 atoms

Performance: 367670.579 tau/day, 851.089 timesteps/s, 1.870 Matom-step/s
100.0% CPU use with 1 MPI tasks x no OpenMP threads

MPI task timing breakdown:
Section |  min time  |  avg time  |  max time  |%varavg| %total
---------------------------------------------------------------
Pair    | 0.76697    | 0.76697    | 0.76697    |   0.0 | 65.28
Neigh   | 0.35559    | 0.35559    | 0.35559    |   0.0 | 30.26
Comm    | 0.021455   | 0.021455   | 0.021455   |   0.0 |  1.83
Output  | 0.00071501 | 0.00071501 | 0.00071501 |   0.0 |  0.06
Modify  | 0.021683   | 0.021683   | 0.021683   |   0.0 |  1.85
Other   |            | 0.008557   |            |       |  0.73

Nlocal:           2197 ave        2197 max        2197 min
Histogram: 1 0 0 0 0 0 0 0 0 0
Nghost:           3835 ave        3835 max        3835 min
Histogram: 1 0 0 0 0 0 0 0 0 0
Neighs:          78849 ave       78849 max       78849 min
Histogram: 1 0 0 0 0 0 0 0 0 0

Total # of neighbors = 78849
Ave neighs/atom = 35.889395
Neighbor list builds = 168
Dangerous builds = 0
Generated 0 of 0 mixed pair_coeff terms from geometric mixing rule
Setting up Verlet run ...
  Unit style    : lj
  Current step  : 2000
  Time step     : 0.005
Per MPI rank memory allocation (min/avg/max) = 3.244 | 3.244 | 3.244 Mbytes
   Step          Temp          E_pair         E_mol          TotEng         Press     
      2000   1.4833685     -5.1554717      0             -2.9314317      3.1960814    
      2010   1.454413      -5.1110802      0             -2.9304537      3.3324411    
      2020   1.4758697     -5.1437241      0             -2.9309272      3.2128081    
      2030   1.4708791     -5.1362415      0             -2.9309271      3.2425503    
      2040   1.4687565     -5.1325475      0             -2.9304155      3.2664183    
      2050   1.4973745     -5.1752803      0             -2.9302409      3.0636554    
      2060   1.4703721     -5.1353818      0             -2.9308275      3.1738181    
      2070   1.4768378     -5.1451212      0             -2.9308728      3.1438425    
      2080   1.4839923     -5.1558389      0             -2.9308636      3.1332847    
      2090   1.4758231     -5.144773       0             -2.932046       3.1744646    
      2100   1.483618      -5.1567293      0             -2.9323153      3.1136431    
      2110   1.4867734     -5.1608299      0             -2.9316848      3.1104643    
      2120   1.4765681     -5.1459905      0             -2.9321465      3.1747904    
      2130   1.4550195     -5.1129011      0             -2.9313652      3.3409337    
      2140   1.4615352     -5.122749       0             -2.9314441      3.3199625    
      2150   1.4860367     -5.15907        0             -2.9310295      3.1687872    
      2160   1.4795659     -5.1494829      0             -2.9311442      3.1812059    
      2170   1.4660198     -5.1288639      0             -2.9308351      3.2665771    
      2180   1.4646252     -5.1269364      0             -2.9309985      3.2645208    
      2190   1.4951814     -5.172866       0             -2.9311148      3.0853144    
      2200   1.4738386     -5.1412389      0             -2.9314872      3.2078605    
      2210   1.4931878     -5.1695918      0             -2.9308295      3.0896644    
      2220   1.4777616     -5.1463058      0             -2.9306723      3.1717823    
      2230   1.4835075     -5.1554105      0             -2.9311622      3.1523667    
      2240   1.5008917     -5.1816855      0             -2.9313726      3.0346231    
      2250   1.4799823     -5.1508947      0             -2.9319318      3.1458993    
      2260   1.470847      -5.1367621      0             -2.9314957      3.2468572    
      2270   1.4853656     -5.1582382      0             -2.931204       3.204396     
      2280   1.4708098     -5.1364676      0             -2.9312572      3.293391     
      2290   1.4702217     -5.1353441      0             -2.9310153      3.2817033    
      2300   1.494757      -5.1718522      0             -2.9307373      3.1023222    
      2310   1.4810714     -5.1514558      0             -2.9308599      3.1639381    
      2320   1.4606708     -5.1211668      0             -2.931158       3.2651652    
      2330   1.4967922     -5.1757704      0             -2.931604       3.0554038    
      2340   1.4656673     -5.1289591      0             -2.9314589      3.2399       
      2350   1.4612938     -5.1220935      0             -2.9311506      3.3014531    
      2360   1.4777564     -5.1468928      0             -2.931267       3.2247142    
      2370   1.4842596     -5.1561052      0             -2.9307292      3.1747128    
      2380   1.4897501     -5.165087       0             -2.931479       3.1117402    
      2390   1.4995982     -5.1802591      0             -2.9318856      3.0542813    
      2400   1.4619029     -5.1240377      0             -2.9321814      3.265726     
      2410   1.4931397     -5.1709894      0             -2.9322993      3.078892     
      2420   1.4823746     -5.1550929      0             -2.9325432      3.1266335    
      2430   1.4833557     -5.1563976      0             -2.9323768      3.1269387    
      2440   1.4802807     -5.1511929      0             -2.9317826      3.1729978    
      2450   1.4751572     -5.1439452      0             -2.9322165      3.2155878    
      2460   1.4796378     -5.1500474      0             -2.9316008      3.1677833    
      2470   1.5029343     -5.1845234      0             -2.9311481      3.0050316    
      2480   1.4806705     -5.1512395      0             -2.9312447      3.1351824    
      2490   1.4758163     -5.1448558      0             -2.9321389      3.2042572    
      2500   1.4657308     -5.1297168      0             -2.9321212      3.2309876    
      2510   1.4840148     -5.1562006      0             -2.9311916      3.1139365    
      2520   1.4841837     -5.1568715      0             -2.9316093      3.1311246    
      2530   1.4597474     -5.1202664      0             -2.931642       3.2746953    
      2540   1.4921296     -5.1682864      0             -2.9311108      3.1230238    
      2550   1.4867076     -5.1592817      0             -2.9302353      3.1808277    
      2560   1.4721417     -5.1372782      0             -2.9300707      3.2577193    
      2570   1.4697535     -5.134279       0             -2.9306522      3.2570101    
      2580   1.4675621     -5.1306049      0             -2.9302638      3.2613851    
      2590   1.4543649     -5.110938       0             -2.9303836      3.3347375    
      2600   1.4628898     -5.1234995      0             -2.9301635      3.306148     
      2610   1.4812534     -5.1510391      0             -2.9301703      3.2474958    
      2620   1.4510545     -5.1055196      0             -2.9299286      3.401719     
      2630   1.5064467     -5.1891179      0             -2.9304765      3.0516762    
      2640   1.5182576     -5.206317       0             -2.9299672      2.9536001    
      2650   1.4923766     -5.1673607      0             -2.9298147      3.1058417    
      2660   1.4713837     -5.1373901      0             -2.9313191      3.216931     
      2670   1.4700862     -5.1357599      0             -2.9316343      3.2283802    
      2680   1.4676176     -5.1316929      0             -2.9312685      3.2310737    
      2690   1.4792442     -5.1487703      0             -2.930914       3.1712854    
      2700   1.4804054     -5.1509928      0             -2.9313955      3.1701041    
      2710   1.5154436     -5.2033818      0             -2.931251       2.9714575    
      2720   1.5036452     -5.1858996      0             -2.9314583      3.0413266    
      2730   1.465254      -5.1280819      0             -2.9312013      3.2372597    
      2740   1.4849353     -5.1577739      0             -2.9313847      3.1238067    
      2750   1.4705615     -5.1367055      0             -2.9318674      3.2088392    
      2760   1.4876537     -5.1620229      0             -2.9315581      3.1357813    
      2770   1.4838578     -5.1560159      0             -2.9312423      3.1863043    
      2780   1.4760646     -5.1442944      0             -2.9312053      3.2447116    
      2790   1.4788691     -5.1475308      0             -2.9302368      3.2381336    
      2800   1.4989223     -5.178582       0             -2.931222       3.1263174    
      2810   1.450054      -5.104824       0             -2.930733       3.3834696    
      2820   1.4728228     -5.1395025      0             -2.9312739      3.2382795    
      2830   1.4843682     -5.1560569      0             -2.9305181      3.1407142    
      2840   1.4889221     -5.1627022      0             -2.9303357      3.0880756    
      2850   1.4648837     -5.1271732      0             -2.9308477      3.2220894    
      2860   1.4610167     -5.1218304      0             -2.9313027      3.2514846    
      2870   1.4655948     -5.1288542      0             -2.9314626      3.2140377    
      2880   1.4921081     -5.1677842      0             -2.9306408      3.0720101    
      2890   1.4813322     -5.151715       0             -2.9307281      3.1639145    
      2900   1.4730468     -5.1391175      0             -2.930553       3.2304287    
      2910   1.485005      -5.1571839      0             -2.9306902      3.1422029    
      2920   1.4692946     -5.1337427      0             -2.930804       3.2152993    
      2930   1.4712774     -5.136074       0             -2.9301624      3.2217954    
      2940   1.478966      -5.1482474      0             -2.9308082      3.2266587    
      2950   1.4503877     -5.1053637      0             -2.9307724      3.3781519    
      2960   1.498151      -5.1766244      0             -2.9304208      3.1045256    
      2970   1.4600932     -5.1198261      0             -2.9306832      3.2969179    
      2980   1.4931977     -5.1695324      0             -2.9307553      3.1226112    
      2990   1.4710753     -5.1368236      0             -2.931215       3.2380479    
      3000   1.4694828     -5.134502       0             -2.9312811      3.2618339    
      3010   1.4834549     -5.1557791      0             -2.9316096      3.2116585    
      3020   1.4844295     -5.1572995      0             -2.9316687      3.1876693    
      3030   1.4730823     -5.1397817      0             -2.931164       3.2363339    
      3040   1.4500113     -5.1052644      0             -2.9312374      3.3906134    
      3050   1.4774592     -5.1459485      0             -2.9307684      3.2314942    
      3060   1.4748331     -5.1417814      0             -2.9305387      3.2070888    
      3070   1.4673774     -5.1304537      0             -2.9303895      3.2115158    
      3080   1.4842463     -5.1562716      0             -2.9309155      3.1099912    
      3090   1.4604845     -5.1210205      0             -2.9312909      3.2651987    
      3100   1.4936323     -5.1704851      0             -2.9310564      3.1061429    
      3110   1.455603      -5.1131205      0             -2.9307099      3.302947     
      3120   1.4669206     -5.1307109      0             -2.9313315      3.2317174    
      3130   1.4767523     -5.1459818      0             -2.9318616      3.1505953    
      3140   1.480715      -5.1516018      0             -2.9315402      3.1250272    
      3150   1.4841546     -5.1575926      0             -2.9323741      3.1122644    
      3160   1.4763384     -5.145643       0             -2.9321433      3.1566679    
      3170   1.478492      -5.1486124      0             -2.9318839      3.1309167    
      3180   1.4950914     -5.1728927      0             -2.9312764      3.0558258    
      3190   1.4672174     -5.1312051      0             -2.9313808      3.2503457    
      3200   1.4982451     -5.1776859      0             -2.9313412      3.0646106    
      3210   1.4805938     -5.1504433      0             -2.9305635      3.1212938    
      3220   1.4668552     -5.1301391      0             -2.9308577      3.2280945    
      3230   1.473848      -5.1410824      0             -2.9313166      3.2327465    
      3240   1.4653514     -5.1277575      0             -2.9307308      3.2916714    
      3250   1.4866427     -5.1586842      0             -2.9297353      3.1637864    
      3260   1.4684726     -5.132443       0             -2.9307368      3.2452481    
      3270   1.4625686     -5.123559       0             -2.9307046      3.2721413    
      3280   1.4654468     -5.127098       0             -2.9299284      3.2505254    
      3290   1.4483729     -5.1024158      0             -2.9308454      3.3481399    
      3300   1.461232      -5.1217877      0             -2.9309372      3.2879151    
      3310   1.451884      -5.106838       0             -2.9300034      3.3215817    
      3320   1.4708846     -5.1354107      0             -2.9300881      3.181659     
      3330   1.4777484     -5.1458204      0             -2.9302067      3.1520429    
      3340   1.4723732     -5.1378765      0             -2.930322       3.178482     
      3350   1.4890826     -5.1635319      0             -2.9309247      3.0871472    
      3360   1.4677929     -5.1318366      0             -2.9311494      3.2309456    
      3370   1.46784       -5.1318567      0             -2.9310989      3.2353671    
      3380   1.4734649     -5.1405036      0             -2.9313123      3.2063064    
      3390   1.4946245     -5.1730013      0             -2.9320849      3.0654174    
      3400   1.5162741     -5.2059849      0             -2.932609       2.9161652    
      3410   1.4881557     -5.1628579      0             -2.9316404      3.0844217    
      3420   1.4560103     -5.1133668      0             -2.9303455      3.3352848    
      3430   1.4509447     -5.1062768      0             -2.9308504      3.3672962    
      3440   1.4937117     -5.1710782      0             -2.9315305      3.0729377    
      3450   1.5015214     -5.1826794      0             -2.9314224      2.9912875    
      3460   1.485043      -5.1580326      0             -2.931482       3.1419941    
      3470   1.4605143     -5.1207643      0             -2.93099        3.3163455    
      3480   1.4766423     -5.144488       0             -2.9305328      3.2225926    
      3490   1.4806905     -5.1508978      0             -2.930873       3.2043607    
      3500   1.4670001     -5.1301588      0             -2.9306603      3.3026902    
      3510   1.4526812     -5.1089544      0             -2.9309244      3.3719893    
      3520   1.470009      -5.1348231      0             -2.9308131      3.2798182    
      3530   1.4715013     -5.1365823      0             -2.9303351      3.2472143    
      3540   1.4878931     -5.1610543      0             -2.9302305      3.1530036    
      3550   1.4997792     -5.1790721      0             -2.9304272      3.0855167    
      3560   1.4952522     -5.1719993      0             -2.9301418      3.0935602    
      3570   1.5081358     -5.1916498      0             -2.9304758      3.0464001    
      3580   1.4785968     -5.1480778      0             -2.9311921      3.2175368    
      3590   1.4669487     -5.1306248      0             -2.9312034      3.2879332    
      3600   1.4790342     -5.1489399      0             -2.9313985      3.2166519    
      3610   1.4649026     -5.1271481      0             -2.9307944      3.2828408    
      3620   1.4854189     -5.1573009      0             -2.9301867      3.141099     
      3630   1.5125875     -5.1991322      0             -2.9312837      2.9960913    
      3640   1.4713972     -5.1376852      0             -2.9315939      3.2069759    
      3650   1.4695384     -5.134677       0             -2.9313728      3.1877022    
      3660   1.5079059     -5.1928611      0             -2.9320317      2.9711847    
      3670   1.4712099     -5.1370038      0             -2.9311934      3.1932412    
      3680   1.4821259     -5.1531231      0             -2.9309461      3.1806478    
      3690   1.4848644     -5.1574217      0             -2.9311388      3.1752487    
      3700   1.4699242     -5.1351698      0             -2.9312871      3.2750584    
      3710   1.4552824     -5.1126725      0             -2.9307426      3.3504907    
      3720   1.4907244     -5.1665395      0             -2.9314706      3.1703372    
      3730   1.4974071     -5.1764724      0             -2.931384       3.1402633    
      3740   1.4947971     -5.1722341      0             -2.931059       3.133755     
      3750   1.4887944     -5.1638945      0             -2.9317193      3.1583201    
      3760   1.4763183     -5.1449412      0             -2.9314717      3.2112181    
      3770   1.4664973     -5.130423       0             -2.9316783      3.2645413    
      3780   1.4583592     -5.1184033      0             -2.9318602      3.3189518    
      3790   1.4614716     -5.1232127      0             -2.9320031      3.2763053    
      3800   1.4704476     -5.1362179      0             -2.9315504      3.2298231    
      3810   1.498754      -5.1783121      0             -2.9312044      3.104333     
      3820   1.4780688     -5.147278       0             -2.931184       3.2343736    
      3830   1.4636734     -5.1257547      0             -2.9312438      3.3057729    
      3840   1.5094909     -5.1942485      0             -2.9310427      3.0535951    
      3850   1.4731029     -5.1396405      0             -2.9309919      3.2509009    
      3860   1.4855671     -5.1585145      0             -2.9311782      3.1992202    
      3870   1.4751965     -5.1427075      0             -2.93092        3.23458      
      3880   1.4779917     -5.1469649      0             -2.9309865      3.1916041    
      3890   1.4741297     -5.1410653      0             -2.9308772      3.1851025    
      3900   1.4913003     -5.1666233      0             -2.930691       3.0697855    
      3910   1.4609401     -5.1211128      0             -2.9307001      3.2080309    
      3920   1.4831254     -5.154673       0             -2.9309976      3.0910792    
      3930   1.4730542     -5.1404557      0             -2.9318801      3.1421676    
      3940   1.4886231     -5.1633345      0             -2.9314162      3.0516684    
      3950   1.4906928     -5.165946       0             -2.9309245      3.0408509    
      3960   1.4918676     -5.1677653      0             -2.9309825      3.0413289    
      3970   1.4792633     -5.1493562      0             -2.9314711      3.1463468    
      3980   1.477321      -5.1455688      0             -2.9305959      3.1710429    
      3990   1.467624      -5.130856       0             -2.9304219      3.2579421    
      4000   1.4750484     -5.1422674      0             -2.9307019      3.2300304    
      4010   1.4748659     -5.1427881      0             -2.9314962      3.189938     
      4020   1.4766737     -5.1457495      0             -2.9317472      3.1614937    
      4030   1.462754      -5.1247833      0             -2.931651       3.2239159    
      4040   1.4670437     -5.1315084      0             -2.9319444      3.2394614    
      4050   1.4413105     -5.0925538      0             -2.9315721      3.394133     
      4060   1.4668741     -5.1308661      0             -2.9315565      3.2641428    
      4070   1.4924771     -5.1692707      0             -2.9315739      3.1032208    
      4080   1.4899202     -5.1656144      0             -2.9317512      3.1105616    
      4090   1.4890812     -5.1643157      0             -2.9317106      3.1322167    
      4100   1.4648488     -5.1269007      0             -2.9306276      3.2721885    
      4110   1.4828365     -5.1547642      0             -2.9315219      3.2098208    
      4120   1.4886632     -5.1636338      0             -2.9316554      3.1681369    
      4130   1.4900343     -5.1651899      0             -2.9311557      3.1519247    
      4140   1.4773992     -5.1471544      0             -2.9320643      3.2167427    
      4150   1.4623536     -5.1235123      0             -2.9309803      3.283067     
      4160   1.5025956     -5.1838763      0             -2.9310089      3.0577575    
      4170   1.4549849     -5.1127989      0             -2.9313149      3.2813524    
      4180   1.4674187     -5.1312838      0             -2.9311576      3.2151027    
      4190   1.4811822     -5.1519549      0             -2.9311929      3.1489754    
      4200   1.45922       -5.1190202      0             -2.9311865      3.2491943    
      4210   1.511503      -5.19703        0             -2.9308074      2.9621902    
      4220   1.4801812     -5.1507988      0             -2.9315376      3.1624618    
      4230   1.5029065     -5.1853617      0             -2.9320281      3.0679108    
      4240   1.4590828     -5.1196171      0             -2.931989       3.2979188    
      4250   1.4864494     -5.1604686      0             -2.9318094      3.149588     
      4260   1.4369193     -5.0857329      0             -2.9313351      3.3724949    
      4270   1.4771669     -5.1458452      0             -2.9311034      3.15235      
      4280   1.4550535     -5.1130102      0             -2.9314234      3.2972041    
      4290   1.4591064     -5.1195402      0             -2.9318769      3.2976666    
      4300   1.4754818     -5.1440725      0             -2.9318572      3.1990785    
      4310   1.4864774     -5.1597431      0             -2.9310418      3.1135063    
      4320   1.5092611     -5.1944669      0             -2.9316057      3.0156402    
      4330   1.4639091     -5.1261424      0             -2.9312782      3.2886522    
      4340   1.4587272     -5.1185377      0             -2.9314429      3.319534     
      4350   1.4856013     -5.1587861      0             -2.9313984      3.1561053    
      4360   1.450076      -5.1052597      0             -2.9311356      3.3390733    
      4370   1.4758846     -5.1442736      0             -2.9314544      3.2291095    
      4380   1.4669929     -5.1310173      0             -2.9315295      3.2808364    
      4390   1.4924076     -5.1689695      0             -2.931377       3.1345759    
      4400   1.4811313     -5.1521866      0             -2.9315009      3.1562457    
      4410   1.4816025     -5.1527094      0             -2.9313172      3.1815496    
      4420   1.4826411     -5.1542614      0             -2.9313121      3.1732438    
      4430   1.473826      -5.1417052      0             -2.9319725      3.1726407    
      4440   1.5022358     -5.1842505      0             -2.9319224      3.0007941    
      4450   1.4831916     -5.1553911      0             -2.9316163      3.0867996    
      4460   1.4707446     -5.1359902      0             -2.9308775      3.175907     
      4470   1.4855278     -5.1583118      0             -2.9310343      3.1323897    
      4480   1.4532913     -5.1098146      0             -2.93087        3.3442949    
      4490   1.4652664     -5.127392       0             -2.9304928      3.3025116    
      4500   1.463231      -5.124669       0             -2.9308215      3.300051     
      4510   1.4757243     -5.1440683      0             -2.9314895      3.2352164    
      4520   1.4651386     -5.1271325      0             -2.9304249      3.2717696    
      4530   1.4797051     -5.1487517      0             -2.9302043      3.1594095    
      4540   1.5050368     -5.1872094      0             -2.9306818      3.0085408    
      4550   1.4756173     -5.1431293      0             -2.9307107      3.2013912    
      4560   1.4500775     -5.1037808      0             -2.9296547      3.3928523    
      4570   1.4498764     -5.103873       0             -2.9300483      3.3645799    
      4580   1.4781327     -5.1471928      0             -2.931003       3.1996535    
      4590   1.4683413     -5.1329987      0             -2.9314893      3.2227169    
      4600   1.4912746     -5.1671293      0             -2.9312356      3.0813235    
      4610   1.4756938     -5.1438974      0             -2.9313643      3.1973507    
      4620   1.4650603     -5.1277529      0             -2.9311627      3.2859251    
      4630   1.4716838     -5.1378399      0             -2.931319       3.2298702    
      4640   1.4616369     -5.1220802      0             -2.9306227      3.2622713    
      4650   1.482503      -5.1541356      0             -2.9313933      3.1863125    
      4660   1.4709583     -5.1365645      0             -2.9311313      3.2229954    
      4670   1.4803739     -5.1504675      0             -2.9309173      3.1361597    
      4680   1.4871086     -5.1606232      0             -2.9309756      3.1055206    
      4690   1.4917321     -5.1677156      0             -2.9311358      3.1150498    
      4700   1.5076783     -5.1915092      0             -2.9310211      3.0453998    
      4710   1.4709876     -5.1351285      0             -2.9296514      3.2348632    
      4720   1.4670648     -5.129669       0             -2.9300734      3.2334249    
      4730   1.4791323     -5.1484806      0             -2.9307921      3.1645243    
      4740   1.4799285     -5.1497841      0             -2.9309019      3.1538922    
      4750   1.4733754     -5.1392773      0             -2.9302201      3.1662741    
      4760   1.5015541     -5.1824989      0             -2.9311929      3.0184025    
      4770   1.462872      -5.1250645      0             -2.9317552      3.2743903    
      4780   1.4514153     -5.1075337      0             -2.9314017      3.3498784    
      4790   1.4818083     -5.1530138      0             -2.931313       3.1824917    
      4800   1.485313      -5.1587283      0             -2.9317729      3.147582     
      4810   1.4800761     -5.1511793      0             -2.9320756      3.181698     
      4820   1.474351      -5.1414788      0             -2.930959       3.2207778    
      4830   1.4986271     -5.1777749      0             -2.9308574      3.0917044    
      4840   1.4635883     -5.1248777      0             -2.9304945      3.2788223    
      4850   1.4560442     -5.1137876      0             -2.9307154      3.3173095    
      4860   1.4756083     -5.1432963      0             -2.9308913      3.1746246    
      4870   1.4758072     -5.1435729      0             -2.9308697      3.1676472    
      4880   1.4859216     -5.1586619      0             -2.9307941      3.147892     
      4890   1.4656116     -5.1285731      0             -2.9311564      3.2735076    
      4900   1.4495243     -5.1053127      0             -2.932016       3.3282222    
      4910   1.4621463     -5.1238708      0             -2.9316496      3.2299555    
      4920   1.4896472     -5.1650079      0             -2.9315542      3.0720253    
      4930   1.4899833     -5.1644615      0             -2.9305039      3.0884241    
      4940   1.4754146     -5.1431878      0             -2.9310732      3.2066107    
      4950   1.469277      -5.1335612      0             -2.9306488      3.2613861    
      4960   1.4808722     -5.1509993      0             -2.930702       3.2078017    
      4970   1.4909151     -5.1660211      0             -2.9306664      3.1427085    
      4980   1.4947605     -5.1719378      0             -2.9308176      3.1239921    
      4990   1.4877647     -5.1619674      0             -2.9313361      3.1625798    
      5000   1.4828726     -5.1548969      0             -2.9316004      3.184546     
      5010   1.4750219     -5.1436087      0             -2.9320829      3.1920744    
      5020   1.4959774     -5.1742628      0             -2.9313181      3.0485074    
      5030   1.4961827     -5.1749625      0             -2.9317099      3.0617705    
      5040   1.4886496     -5.16315        0             -2.931192       3.1268496    
      5050   1.4887425     -5.1634238      0             -2.9313265      3.1480464    
      5060   1.4529811     -5.109315       0             -2.9308353      3.370419     
      5070   1.480295      -5.150252       0             -2.9308202      3.2438984    
      5080   1.4658754     -5.1288901      0             -2.9310777      3.2967063    
      5090   1.4894239     -5.1644437      0             -2.9313247      3.1516429    
      5100   1.4786951     -5.1479111      0             -2.9308781      3.1807779    
      5110   1.458979      -5.1192041      0             -2.9317318      3.287051     
      5120   1.4863999     -5.1601119      0             -2.9315268      3.1245638    
      5130   1.4660969     -5.1294391      0             -2.9312948      3.2115155    
      5140   1.4625627     -5.1249557      0             -2.9321102      3.2328212    
      5150   1.4635689     -5.1260768      0             -2.9317227      3.2349094    
      5160   1.4731781     -5.1404527      0             -2.9316914      3.1757852    
      5170   1.4664467     -5.1307096      0             -2.9320407      3.2316708    
      5180   1.4676362     -5.1318455      0             -2.9313931      3.2790015    
      5190   1.4618764     -5.1226294      0             -2.9308128      3.3214535    
      5200   1.4599915     -5.119453       0             -2.9304625      3.3085019    
      5210   1.4764101     -5.1448201      0             -2.9312129      3.2058306    
      5220   1.480101      -5.1500549      0             -2.930914       3.1594262    
      5230   1.497257      -5.1757285      0             -2.9308653      3.0487288    
      5240   1.472871      -5.1396244      0             -2.9313235      3.1864595    
      5250   1.4684064     -5.1334616      0             -2.9318546      3.2100321    
      5260   1.4686111     -5.1331348      0             -2.9312209      3.2261537    
      5270   1.4913747     -5.1665431      0             -2.9304994      3.1052628    
      5280   1.4981578     -5.1772512      0             -2.9310374      3.0725183    
      5290   1.4836581     -5.1554182      0             -2.9309439      3.1348443    
      5300   1.4961878     -5.1753328      0             -2.9320726      3.0887641    
      5310   1.4552691     -5.1138455      0             -2.9319355      3.3243116    
      5320   1.4905766     -5.1659705      0             -2.9311233      3.1144627    
      5330   1.500387      -5.1805357      0             -2.9309796      3.0552898    
      5340   1.4884818     -5.1631353      0             -2.9314289      3.129372     
      5350   1.4757723     -5.1439079      0             -2.9312571      3.2090054    
      5360   1.4915346     -5.1676185      0             -2.9313349      3.1305267    
      5370   1.4913498     -5.1670212      0             -2.9310148      3.1277803    
      5380   1.4716232     -5.1377951      0             -2.931365       3.2236249    
      5390   1.4744487     -5.1418687      0             -2.9312023      3.1760943    
      5400   1.4914407     -5.1669846      0             -2.9308418      3.068067     
      5410   1.4964931     -5.175525       0             -2.9318072      3.068997     
      5420   1.4766122     -5.1454468      0             -2.9315367      3.1915554    
      5430   1.4834835     -5.1555176      0             -2.9313052      3.1609264    
      5440   1.4575761     -5.1166116      0             -2.9312426      3.2853268    
      5450   1.4920803     -5.1685887      0             -2.9314871      3.0859945    
      5460   1.4728976     -5.1399735      0             -2.9316327      3.1979334    
      5470   1.4692878     -5.1344322      0             -2.9315036      3.2085771    
      5480   1.5155684     -5.2039439      0             -2.931626       2.9587388    
      5490   1.4852939     -5.1584838      0             -2.9315571      3.1026533    
      5500   1.4897274     -5.164283       0             -2.930709       3.088577     
      5510   1.484109      -5.1560137      0             -2.9308634      3.1297059    
      5520   1.4577879     -5.1161222      0             -2.9304356      3.3050008    
      5530   1.478316      -5.1469087      0             -2.930444       3.2121817    
      5540   1.4542601     -5.1109152      0             -2.930518       3.3294111    
      5550   1.4580187     -5.1166515      0             -2.9306189      3.3226254    
      5560   1.4763671     -5.1445538      0             -2.9310112      3.2162371    
      5570   1.493183      -5.1695615      0             -2.9308065      3.1167597    
      5580   1.4797022     -5.1497475      0             -2.9312045      3.1743469    
      5590   1.500162      -5.1799463      0             -2.9307276      3.0878704    
      5600   1.4681359     -5.132014       0             -2.9308125      3.2679514    
      5610   1.4701127     -5.1348712      0             -2.9307059      3.2573626    
      5620   1.5033313     -5.1844213      0             -2.9304508      3.0889641    
      5630   1.4425816     -5.0933516      0             -2.9304641      3.4235247    
      5640   1.491064      -5.1667961      0             -2.9312181      3.1737625    
      5650   1.4693036     -5.1344249      0             -2.9314727      3.2469141    
      5660   1.4999533     -5.1806461      0             -2.9317403      3.0669002    
      5670   1.4667056     -5.1299055      0             -2.9308484      3.2424464    
      5680   1.4911417     -5.1661123      0             -2.9304179      3.1203349    
      5690   1.4816521     -5.151862       0             -2.9303955      3.1810417    
      5700   1.474558      -5.1417745      0             -2.9309443      3.2399341    
      5710   1.4781786     -5.1473321      0             -2.9310735      3.2112598    
      5720   1.471479      -5.1373702      0             -2.9311563      3.2305394    
      5730   1.4663067     -5.1294372      0             -2.9309783      3.2639912    
      5740   1.4715364     -5.137209       0             -2.9309092      3.253778     
      5750   1.4999342     -5.1801607      0             -2.9312834      3.1073506    
      5760   1.4813216     -5.1526193      0             -2.9316483      3.2276473    
      5770   1.4830023     -5.1549425      0             -2.9314516      3.2041637    
      5780   1.4664329     -5.1295748      0             -2.9309267      3.278585     
      5790   1.4655504     -5.1284233      0             -2.9310983      3.2896107    
      5800   1.4958487     -5.1742521      0             -2.9315003      3.1344059    
      5810   1.4892938     -5.1646042      0             -2.9316803      3.176451     
      5820   1.4619286     -5.1233401      0             -2.9314454      3.31432      
      5830   1.4938969     -5.1715963      0             -2.931771       3.1647043    
      5840   1.4576613     -5.1166112      0             -2.9311145      3.3787871    
      5850   1.4843531     -5.1565727      0             -2.9310565      3.1809778    
      5860   1.4816701     -5.1525489      0             -2.9310554      3.1303115    
      5870   1.514966      -5.202782       0             -2.9313674      2.9505811    
      5880   1.4908546     -5.1664421      0             -2.9311781      3.1030796    
      5890   1.485031      -5.158514       0             -2.9319814      3.1416842    
      5900   1.4598648     -5.1210285      0             -2.9322279      3.2437533    
      5910   1.4784906     -5.1484542      0             -2.9317277      3.1358082    
      5920   1.495675      -5.1745147      0             -2.9320234      3.0402319    
      5930   1.4811272     -5.1525207      0             -2.9318411      3.1055926    
      5940   1.493827      -5.1714046      0             -2.931684       3.0533969    
      5950   1.4693726     -5.1343359      0             -2.9312802      3.2003496    
      5960   1.4658903     -5.1291333      0             -2.9312988      3.2499402    
      5970   1.4510303     -5.1064927      0             -2.9309379      3.3185752    
      5980   1.4803706     -5.1504385      0             -2.9308933      3.1230599    
      5990   1.471497      -5.1380876      0             -2.9318468      3.145975     
      6000   1.487508      -5.1627692      0             -2.9325228      3.0524877    
      6010   1.4897178     -5.1656252      0             -2.9320656      3.0539929    
      6020   1.495095      -5.173676       0             -2.9320543      3.0458285    
      6030   1.5010068     -5.1822108      0             -2.9317254      3.0475802    
      6040   1.4874365     -5.1615943      0             -2.931455       3.1374941    
      6050   1.4752912     -5.1432908      0             -2.9313612      3.2245744    
      6060   1.4580107     -5.1170359      0             -2.9310153      3.341009     
      6070   1.4768146     -5.1456162      0             -2.9314026      3.2293582    
      6080   1.4894793     -5.1652766      0             -2.9320746      3.1285929    
      6090   1.49637       -5.1745313      0             -2.930998       3.0933687    
      6100   1.4726626     -5.1392198      0             -2.9312314      3.2225216    
      6110   1.4802899     -5.1510674      0             -2.9316432      3.227387     
      6120   1.4825121     -5.1543729      0             -2.9316171      3.2300434    
      6130   1.4705126     -5.1364196      0             -2.9316547      3.2541318    
      6140   1.4632188     -5.1260451      0             -2.9322159      3.2316341    
      6150   1.4694987     -5.1346565      0             -2.9314117      3.1839119    
      6160   1.4835183     -5.1559976      0             -2.931733       3.1099873    
      6170   1.4815992     -5.1522738      0             -2.9308865      3.1208469    
      6180   1.4663017     -5.128861       0             -2.9304096      3.2205597    
      6190   1.458396      -5.1167831      0             -2.9301848      3.3135813    
      6200   1.4678112     -5.1305553      0             -2.9298407      3.2848179    
      6210   1.4745946     -5.1410783      0             -2.9301932      3.2434859    
      6220   1.4936819     -5.1696483      0             -2.9301453      3.1552067    
      6230   1.4626183     -5.1235176      0             -2.9305888      3.3162455    
      6240   1.4837001     -5.1557315      0             -2.9311945      3.1501364    
      6250   1.4965349     -5.1752314      0             -2.9314508      3.063442     
      6260   1.4798971     -5.1493409      0             -2.9305056      3.1507604    
      6270   1.4817193     -5.1524484      0             -2.9308811      3.1327262    
      6280   1.4933072     -5.1707389      0             -2.9317976      3.0889467    
      6290   1.4798949     -5.1500706      0             -2.9312387      3.1781459    
      6300   1.4806363     -5.1509962      0             -2.9310527      3.152356     
      6310   1.464969      -5.1275343      0             -2.9310809      3.2312809    
      6320   1.4601869     -5.1201799      0             -2.9308965      3.2578422    
      6330   1.4619198     -5.1230933      0             -2.9312117      3.2630411    
      6340   1.4838814     -5.1559625      0             -2.9311536      3.1465261    
      6350   1.4550117     -5.1126843      0             -2.9311602      3.3036488    
      6360   1.4549772     -5.1135287      0             -2.9320562      3.3202789    
      6370   1.4785586     -5.1480424      0             -2.931214       3.2010999    
      6380   1.4685183     -5.1321314      0             -2.9303566      3.2465483    
      6390   1.4931177     -5.1698294      0             -2.9311722      3.1262264    
      6400   1.4883729     -5.1619216      0             -2.9303783      3.1608876    
      6410   1.4645944     -5.1265705      0             -2.9306789      3.2630759    
      6420   1.4837388     -5.1556216      0             -2.9310264      3.1580927    
      6430   1.4781011     -5.1467291      0             -2.9305866      3.1722532    
      6440   1.4844973     -5.1568151      0             -2.9310827      3.1186968    
      6450   1.4647803     -5.127433       0             -2.9312626      3.2119419    
      6460   1.4827946     -5.1543923      0             -2.9312127      3.1380653    
      6470   1.4669102     -5.1297083      0             -2.9303445      3.2467251    
      6480   1.4819798     -5.1529857      0             -2.9310277      3.1810861    
      6490   1.4972266     -5.1754598      0             -2.9306421      3.0763901    
      6500   1.4994122     -5.1790716      0             -2.9309769      3.0470708    
      6510   1.4653729     -5.1277436      0             -2.9306847      3.251659     
      6520   1.4717092     -5.1364755      0             -2.9299165      3.2166887    
      6530   1.4884776     -5.162701       0             -2.9310009      3.0950861    
      6540   1.4643431     -5.1266787      0             -2.9311639      3.2146787    
      6550   1.4515379     -5.1071278      0             -2.9308121      3.2618895    
      6560   1.4788575     -5.1481464      0             -2.9308699      3.1211566    
      6570   1.47874       -5.1478998      0             -2.9307995      3.1696152    
      6580   1.4562125     -5.1145817      0             -2.9312572      3.2983227    
      6590   1.4819727     -5.1527709      0             -2.9308237      3.1271504    
      6600   1.4937991     -5.1703831      0             -2.9307042      3.0557558    
      6610   1.50378       -5.185869       0             -2.9312257      3.0179208    
      6620   1.4674147     -5.130892       0             -2.9307718      3.2533725    
      6630   1.4796671     -5.1491397      0             -2.9306494      3.1926764    
      6640   1.479491      -5.1496841      0             -2.9314576      3.1566893    
      6650   1.4919021     -5.1677476      0             -2.9309131      3.1030505    
      6660   1.4776986     -5.1462482      0             -2.9307092      3.1980977    
      6670   1.4595017     -5.1193756      0             -2.9311195      3.299463     
      6680   1.4816967     -5.152409       0             -2.9308756      3.1571419    
      6690   1.4918659     -5.1683173      0             -2.931537       3.0803208    
      6700   1.4852028     -5.1576142      0             -2.930824       3.1110594    
      6710   1.4911419     -5.1665753      0             -2.9308805      3.08731      
      6720   1.4709289     -5.1362903      0             -2.9309013      3.2162218    
      6730   1.4616086     -5.1226037      0             -2.9311886      3.2766464    
      6740   1.4951074     -5.1728129      0             -2.9311725      3.0868354    
      6750   1.4899101     -5.1646669      0             -2.9308191      3.1282926    
      6760   1.4691936     -5.1333242      0             -2.930537       3.2866675    
      6770   1.4755376     -5.1431928      0             -2.9308937      3.2597967    
      6780   1.4841437     -5.1560427      0             -2.9308405      3.1952012    
      6790   1.5024995     -5.183815       0             -2.9310916      3.0708696    
      6800   1.4853709     -5.1581963      0             -2.9311541      3.169071     
      6810   1.4755776     -5.1433802      0             -2.9310213      3.2221657    
      6820   1.4578444     -5.1166371      0             -2.9308658      3.3314963    
      6830   1.4581819     -5.117217       0             -2.9309398      3.3327149    
      6840   1.5060209     -5.1899951      0             -2.9319921      3.0335252    
      6850   1.4719267     -5.1384049      0             -2.9315198      3.2298187    
      6860   1.4737036     -5.1412008      0             -2.9316515      3.2274711    
      6870   1.4876867     -5.1622059      0             -2.9316916      3.1411902    
      6880   1.4831474     -5.1556261      0             -2.9319176      3.1853429    
      6890   1.4768872     -5.1461881      0             -2.9318656      3.2239373    
      6900   1.4769775     -5.1465516      0             -2.9320938      3.1913995    
      6910   1.4787363     -5.148992       0             -2.9318972      3.165838     
      6920   1.4992189     -5.1800087      0             -2.9322039      3.0472968    
      6930   1.4584818     -5.1181081      0             -2.9313812      3.2650198    
      6940   1.4626431     -5.124422       0             -2.931456       3.2736085    
      6950   1.4731256     -5.1401123      0             -2.9314297      3.1863092    
      6960   1.4728164     -5.1404099      0             -2.9321909      3.1865428    
      6970   1.4827692     -5.1547396      0             -2.9315981      3.1610321    
      6980   1.4897179     -5.1646173      0             -2.9310575      3.152229     
      6990   1.4676376     -5.1313922      0             -2.9309377      3.3134947    
      7000   1.4458717     -5.0980345      0             -2.9302141      3.4077464    
      7010   1.4727199     -5.13826        0             -2.9301856      3.2240244    
      7020   1.4772671     -5.1460524      0             -2.9311603      3.1897122    
      7030   1.4926573     -5.1688597      0             -2.9308929      3.1182609    
      7040   1.496613      -5.1750179      0             -2.9311202      3.0833227    
      7050   1.4869056     -5.1607418      0             -2.9313985      3.1084086    
      7060   1.4921521     -5.1684945      0             -2.931285       3.0767472    
      7070   1.480279      -5.1510599      0             -2.931652       3.1666732    
      7080   1.4683816     -5.1325817      0             -2.9310118      3.2563452    
      7090   1.4671127     -5.13086        0             -2.9311926      3.2630053    
      7100   1.4499594     -5.1061416      0             -2.9321925      3.3054597    
      7110   1.4810996     -5.1526344      0             -2.9319962      3.1305352    
      7120   1.4581207     -5.1175536      0             -2.9313681      3.2826144    
      7130   1.5136888     -5.2007861      0             -2.9312864      2.9786574    
      7140   1.4685722     -5.1327867      0             -2.9309311      3.1999578    
      7150   1.4990858     -5.1791081      0             -2.9315029      3.0451006    
      7160   1.4683281     -5.1332212      0             -2.9317315      3.2199736    
      7170   1.4835205     -5.1564109      0             -2.932143       3.1235222    
      7180   1.4827614     -5.1553263      0             -2.9321965      3.1325598    
      7190   1.45826       -5.1173201      0             -2.9309257      3.263048     
      7200   1.4944391     -5.1715865      0             -2.9309482      3.0731502    
      7210   1.4538954     -5.11069        0             -2.9308396      3.3397605    
      7220   1.4846008     -5.1569782      0             -2.9310905      3.178591     
      7230   1.4985773     -5.1782374      0             -2.9313945      3.088254     
      7240   1.4702415     -5.1353069      0             -2.9309485      3.2329249    
      7250   1.4803858     -5.150375       0             -2.930807       3.1950059    
      7260   1.4921137     -5.1673699      0             -2.9302182      3.1516576    
      7270   1.4812448     -5.1519121      0             -2.9310562      3.1841163    
      7280   1.4719083     -5.1373687      0             -2.9305112      3.2192142    
      7290   1.5007996     -5.1811538      0             -2.930979       3.0810642    
      7300   1.4543324     -5.1106567      0             -2.930151       3.3278439    
      7310   1.4912897     -5.1664588      0             -2.9305424      3.1088046    
      7320   1.4755833     -5.1434247      0             -2.9310572      3.1782923    
      7330   1.4900452     -5.1645704      0             -2.9305199      3.1054529    
      7340   1.4573945     -5.1154086      0             -2.9303119      3.2761183    
      7350   1.5045335     -5.1857283      0             -2.9299553      3.0430706    
      7360   1.4723114     -5.138303       0             -2.930841       3.220657     
      7370   1.4478675     -5.1010473      0             -2.9302346      3.3606871    
      7380   1.5039888     -5.1856509      0             -2.9306946      3.0708681    
      7390   1.4442616     -5.0964636      0             -2.9310573      3.3827436    
      7400   1.4576491     -5.1170936      0             -2.9316152      3.3290141    
      7410   1.4728766     -5.140294       0             -2.9319848      3.2397373    
      7420   1.4817952     -5.1527257      0             -2.9310446      3.1622214    
      7430   1.4705221     -5.1362933      0             -2.9315142      3.2080115    
      7440   1.4686206     -5.1332197      0             -2.9312916      3.2152325    
      7450   1.4617115     -5.1234457      0             -2.9318763      3.2517813    
      7460   1.4769444     -5.1466448      0             -2.9322366      3.2032043    
      7470   1.476212      -5.1450277      0             -2.9317175      3.2159748    
      7480   1.4963559     -5.1755551      0             -2.9320429      3.0907219    
      7490   1.4786075     -5.1487717      0             -2.9318699      3.1721178    
      7500   1.4511463     -5.1066396      0             -2.930911       3.3278538    
      7510   1.4872466     -5.1617463      0             -2.9318919      3.1174991    
      7520   1.4709671     -5.1362413      0             -2.9307949      3.1982477    
      7530   1.4680155     -5.1321075      0             -2.9310865      3.214634     
      7540   1.4916472     -5.1675196      0             -2.9310673      3.1031108    
      7550   1.4651556     -5.1274625      0             -2.9307294      3.2458819    
      7560   1.4960017     -5.1741229      0             -2.9311418      3.0758894    
      7570   1.4880145     -5.1619509      0             -2.9309452      3.1368283    
      7580   1.4692779     -5.1338592      0             -2.9309454      3.2215105    
      7590   1.4771618     -5.1457662      0             -2.9310321      3.1657181    
      7600   1.4892977     -5.1638778      0             -2.930948       3.1060261    
      7610   1.4913881     -5.1674684      0             -2.9314045      3.0972198    
      7620   1.4941922     -5.1720081      0             -2.9317399      3.0891609    
      7630   1.4862273     -5.1599049      0             -2.9315786      3.144951     
      7640   1.4964992     -5.174884       0             -2.9311569      3.077862     
      7650   1.4664872     -5.1304696      0             -2.93174        3.2370019    
      7660   1.4790715     -5.1485394      0             -2.930942       3.1539428    
      7670   1.4743442     -5.1410993      0             -2.9305896      3.1909346    
      7680   1.4530338     -5.1099001      0             -2.9313414      3.3386807    
      7690   1.4713335     -5.1368937      0             -2.9308981      3.2585142    
      7700   1.4592524     -5.1185174      0             -2.9306351      3.3301241    
      7710   1.5039609     -5.1856355      0             -2.9307209      3.0804924    
      7720   1.4955761     -5.1727109      0             -2.9303679      3.1257469    
      7730   1.4862705     -5.1594427      0             -2.9310517      3.1658358    
      7740   1.482998      -5.154479       0             -2.9309945      3.144157     
      7750   1.4784353     -5.1478895      0             -2.9312459      3.1531098    
      7760   1.457696      -5.1168401      0             -2.9312914      3.2703803    
      7770   1.4747429     -5.141909       0             -2.9308015      3.1768176    
      7780   1.4895778     -5.1646392      0             -2.9312894      3.0868242    
      7790   1.4800256     -5.1510539      0             -2.9320259      3.1431746    
      7800   1.479092      -5.1501254      0             -2.9324972      3.1428332    
      7810   1.4504007     -5.1063027      0             -2.931692       3.2869054    
      7820   1.4837346     -5.1560692      0             -2.9314803      3.1356589    
      7830   1.4987205     -5.1786481      0             -2.9315906      3.0744513    
      7840   1.4825109     -5.1539412      0             -2.931187       3.1840309    
      7850   1.4526431     -5.1090208      0             -2.931048       3.360269     
      7860   1.4808756     -5.1515359      0             -2.9312335      3.2023714    
      7870   1.4703565     -5.1347902      0             -2.9302594      3.2568124    
      7880   1.4875997     -5.1615686      0             -2.9311846      3.1465416    
      7890   1.4651467     -5.1274735      0             -2.9307539      3.2284334    
      7900   1.4808853     -5.1517832      0             -2.9314663      3.1467484    
      7910   1.4575487     -5.1164228      0             -2.9310949      3.2731707    
      7920   1.4864003     -5.1600619      0             -2.9314763      3.1315733    
      7930   1.4748384     -5.1423955      0             -2.9311448      3.1636405    
      7940   1.4890424     -5.1640564      0             -2.9315094      3.0992186    
      7950   1.4791263     -5.1487064      0             -2.9310267      3.16158      
      7960   1.4953931     -5.1726053      0             -2.9305366      3.0974684    
      7970   1.4702352     -5.1349958      0             -2.9306468      3.2614349    
      7980   1.483381      -5.1546153      0             -2.9305565      3.1812145    
      7990   1.4771534     -5.1460918      0             -2.9313702      3.2106032    
      8000   1.4648608     -5.1270766      0             -2.9307855      3.2669902    
      8010   1.4884184     -5.1629261      0             -2.9313147      3.1474281    
      8020   1.4794071     -5.1491437      0             -2.9310431      3.2163051    
      8030   1.4788246     -5.148198       0             -2.9309708      3.2071638    
      8040   1.4628143     -5.1243159      0             -2.9310933      3.28604      
      8050   1.4812158     -5.1516619      0             -2.9308495      3.2354165    
      8060   1.4587807     -5.1174056      0             -2.9302305      3.3729645    
      8070   1.4829781     -5.1539688      0             -2.9305142      3.2255811    
      8080   1.4617452     -5.122053       0             -2.9304331      3.3242658    
      8090   1.4843541     -5.1566747      0             -2.931157       3.1863351    
      8100   1.4865547     -5.1598968      0             -2.9310796      3.1773378    
      8110   1.4835957     -5.1552949      0             -2.9309142      3.2018665    
      8120   1.4830182     -5.1548637      0             -2.9313489      3.1818291    
      8130   1.4755619     -5.1433904      0             -2.9310549      3.2218406    
      8140   1.4663672     -5.1296572      0             -2.9311076      3.2628419    
      8150   1.4668153     -5.1298035      0             -2.9305819      3.2273643    
      8160   1.4811485     -5.1511945      0             -2.930483       3.1370356    
      8170   1.4855039     -5.1580419      0             -2.9308002      3.1150559    
      8180   1.4699758     -5.1352447      0             -2.9312846      3.2335535    
      8190   1.4721375     -5.1387026      0             -2.9315014      3.2221588    
      8200   1.4852687     -5.1583276      0             -2.9314386      3.1236475    
      8210   1.4886995     -5.1634875      0             -2.9314547      3.1332473    
      8220   1.4730052     -5.1395161      0             -2.9310141      3.260256     
      8230   1.4601161     -5.1203293      0             -2.931152       3.3137665    
      8240   1.488691      -5.1635331      0             -2.931513       3.1286866    
      8250   1.4739451     -5.141044       0             -2.9311327      3.2124933    
      8260   1.4575949     -5.1164506      0             -2.9310534      3.3257237    
      8270   1.4802145     -5.1505197      0             -2.9312085      3.1987917    
      8280   1.4721306     -5.1382332      0             -2.9310425      3.2320048    
      8290   1.4790831     -5.1488909      0             -2.9312761      3.1802324    
      8300   1.4989277     -5.178429       0             -2.9310609      3.0769533    
      8310   1.4808355     -5.1504671      0             -2.930225       3.1801109    
      8320   1.4860564     -5.158592       0             -2.930522       3.1568601    
      8330   1.4569829     -5.1153744      0             -2.9308948      3.3281061    
      8340   1.4775691     -5.1463069      0             -2.930962       3.2434368    
      8350   1.4407481     -5.0909766      0             -2.9308381      3.4503912    
      8360   1.4767799     -5.1457896      0             -2.9316279      3.2388219    
      8370   1.4621967     -5.1238424      0             -2.9315457      3.2875516    
      8380   1.472392      -5.1391547      0             -2.9315719      3.2161681    
      8390   1.4913199     -5.1671632      0             -2.9312015      3.1157898    
      8400   1.4722318     -5.139437       0             -2.9320945      3.2127812    
      8410   1.4635114     -5.1260478      0             -2.9317798      3.2640827    
      8420   1.4514557     -5.1083315      0             -2.9321389      3.2893009    
      8430   1.4908144     -5.1681071      0             -2.9329033      3.0816347    
      8440   1.4452398     -5.0987163      0             -2.9318434      3.3408197    
      8450   1.5102877     -5.1969442      0             -2.9325438      2.9968202    
      8460   1.4648435     -5.1274379      0             -2.9311728      3.2465113    
      8470   1.4738923     -5.1414236      0             -2.9315914      3.2314954    
      8480   1.4533637     -5.1103618      0             -2.9313087      3.3714243    
      8490   1.4860168     -5.1585133      0             -2.9305026      3.190193     
      8500   1.4740792     -5.1404254      0             -2.930313       3.2486187    
      8510   1.4939559     -5.1703019      0             -2.930388       3.1418876    
      8520   1.4838369     -5.1554256      0             -2.9306833      3.1834194    
      8530   1.4724566     -5.1380214      0             -2.9303418      3.2392873    
      8540   1.4622677     -5.1234669      0             -2.9310637      3.2680481    
      8550   1.4826449     -5.1545997      0             -2.9316446      3.1469253    
      8560   1.4941205     -5.1717594      0             -2.9315988      3.1076374    
      8570   1.5134536     -5.2007062      0             -2.9315591      2.9713305    
      8580   1.4837154     -5.1556602      0             -2.9311         3.1037282    
      8590   1.4832302     -5.1550221      0             -2.9311895      3.1066472    
      8600   1.4745812     -5.142683       0             -2.931818       3.1454911    
      8610   1.4921577     -5.1692731      0             -2.9320553      3.0780382    
      8620   1.4758622     -5.1444672      0             -2.9316815      3.1589355    
      8630   1.470027      -5.1356574      0             -2.9316205      3.1852673    
      8640   1.4714208     -5.1380414      0             -2.9319148      3.2041128    
      8650   1.4763177     -5.1445047      0             -2.9310361      3.1974872    
      8660   1.4696457     -5.1349935      0             -2.9315283      3.2410788    
      8670   1.4620623     -5.1242468      0             -2.9321514      3.2891336    
      8680   1.4803475     -5.1516662      0             -2.9321557      3.2085449    
      8690   1.4644363     -5.1276425      0             -2.9319879      3.2594874    
      8700   1.4747612     -5.1428851      0             -2.9317502      3.183501     
      8710   1.5059949     -5.1900786      0             -2.9321145      3.0203587    
[...]
      9850   1.4916957     -5.1682965      0             -2.9317714      3.0709487    
      9860   1.4738361     -5.1414291      0             -2.9316813      3.1659816    
      9870   1.4683216     -5.1334481      0             -2.9319683      3.2048063    
      9880   1.4890692     -5.1644008      0             -2.9318136      3.0722808    
      9890   1.4654076     -5.1286083      0             -2.9314973      3.2209165    
      9900   1.4635215     -5.1265725      0             -2.9322895      3.2570779    
      9910   1.4764254     -5.1452584      0             -2.9316283      3.1863671    
      9920   1.4664653     -5.1303853      0             -2.9316885      3.2292421    
      9930   1.4934405     -5.1713945      0             -2.9322534      3.0887301    
      9940   1.4573856     -5.1171566      0             -2.9320732      3.2964816    
      9950   1.4768196     -5.146098       0             -2.9318768      3.1991779    
      9960   1.4851432     -5.1587338      0             -2.932033       3.123011     
      9970   1.4798087     -5.1499093      0             -2.9312067      3.1692722    
      9980   1.4891299     -5.1640789      0             -2.9314007      3.1315217    
      9990   1.4868839     -5.1607778      0             -2.9314671      3.1298954    
     10000   1.4693474     -5.1341422      0             -2.9311243      3.2356744    
     10010   1.4687086     -5.1333644      0             -2.9313042      3.2204258    
     10020   1.4739341     -5.1410483      0             -2.9311534      3.1614686    
     10030   1.4950317     -5.1741         0             -2.9325731      3.0483744    
     10040   1.4702758     -5.1355901      0             -2.9311803      3.219127     
     10050   1.4837749     -5.1556172      0             -2.9309679      3.1697822    
     10060   1.4714695     -5.1368182      0             -2.9306186      3.2431477    
     10070   1.4557748     -5.1134074      0             -2.9307391      3.3407883    
     10080   1.4841586     -5.1553465      0             -2.9301219      3.210848     
     10090   1.471181      -5.1364526      0             -2.9306856      3.2781559    
     10100   1.4740406     -5.141358       0             -2.9313036      3.2571548    
     10110   1.4971058     -5.1761428      0             -2.9315063      3.1402144    
     10120   1.4714151     -5.1381985      0             -2.9320804      3.2763121    
     10130   1.4875513     -5.1623002      0             -2.9319888      3.173766     
     10140   1.4778467     -5.147263       0             -2.9315019      3.1941219    
     10150   1.4723498     -5.1380616      0             -2.9305423      3.1944696    
     10160   1.475794      -5.1438836      0             -2.9312001      3.1989853    
     10170   1.4446547     -5.097893       0             -2.9318973      3.3672378    
     10180   1.4720979     -5.1390771      0             -2.9319353      3.2147711    
     10190   1.4752725     -5.143105       0             -2.9312034      3.2105303    
     10200   1.4816815     -5.1527203      0             -2.9312097      3.1968225    
     10210   1.4790533     -5.1491502      0             -2.9315801      3.1748548    
     10220   1.5046782     -5.1878684      0             -2.9318783      2.9872805    
     10230   1.4641792     -5.1270458      0             -2.9317767      3.1993779    
     10240   1.4732224     -5.1406423      0             -2.9318145      3.1623643    
     10250   1.4854975     -5.1592169      0             -2.9319848      3.1160897    
     10260   1.4758991     -5.1439862      0             -2.9311453      3.1936608    
     10270   1.4704672     -5.1359599      0             -2.931263       3.2235568    
     10280   1.4713001     -5.1373733      0             -2.9314277      3.2206497    
     10290   1.4882799     -5.1628851      0             -2.9314814      3.1323576    
     10300   1.4708095     -5.135816       0             -2.930606       3.2358964    
     10310   1.4877956     -5.1615366      0             -2.930859       3.1558348    
     10320   1.4913196     -5.1668441      0             -2.9308829      3.1259134    
     10330   1.459691      -5.1192573      0             -2.9307174      3.2756154    
     10340   1.4651502     -5.1285647      0             -2.9318397      3.2516796    
     10350   1.4532176     -5.1107452      0             -2.9319109      3.3149042    
     10360   1.452852      -5.1093935      0             -2.9311074      3.2897931    
     10370   1.4740734     -5.1411593      0             -2.9310556      3.1725683    
     10380   1.4755473     -5.1426745      0             -2.9303609      3.214135     
     10390   1.4617772     -5.1231778      0             -2.93151        3.3001122    
     10400   1.4796475     -5.1499166      0             -2.9314555      3.1820253    
     10410   1.4777859     -5.1472698      0             -2.9316         3.1836305    
     10420   1.4536509     -5.1102989      0             -2.930815       3.3148173    
     10430   1.4788053     -5.1484124      0             -2.9312141      3.1860512    
     10440   1.4819013     -5.1527319      0             -2.9308917      3.1905343    
     10450   1.4642605     -5.1263325      0             -2.9309415      3.2997364    
     10460   1.5113058     -5.1974948      0             -2.9315679      3.0654333    
     10470   1.4519795     -5.1072902      0             -2.9303123      3.3829259    
     10480   1.4684315     -5.1322644      0             -2.9306197      3.2809868    
     10490   1.4748857     -5.1422768      0             -2.9309553      3.2017658    
     10500   1.4737395     -5.1404546      0             -2.9308514      3.1500989    
     10510   1.4724214     -5.1394362      0             -2.9318093      3.1191526    
     10520   1.4782554     -5.1480493      0             -2.9316755      3.09535      
     10530   1.4684525     -5.1326796      0             -2.9310033      3.1688597    
     10540   1.4727155     -5.1395443      0             -2.9314766      3.1605638    
     10550   1.4939584     -5.1715813      0             -2.9316637      3.0838158    
     10560   1.4800848     -5.1505488      0             -2.9314321      3.1879673    
     10570   1.4768104     -5.1451954      0             -2.9309882      3.1890549    
     10580   1.495359      -5.1733104      0             -2.9312929      3.0545857    
     10590   1.4698747     -5.1344101      0             -2.9306017      3.2406717    
     10600   1.4715103     -5.1369564      0             -2.9306956      3.2645038    
     10610   1.512343      -5.1980759      0             -2.930594       3.0022997    
     10620   1.5060311     -5.188929       0             -2.9309105      3.0233946    
     10630   1.4497429     -5.1042067      0             -2.9305821      3.3470594    
     10640   1.5161762     -5.2042458      0             -2.9310166      2.9847       
     10650   1.4987858     -5.178216       0             -2.9310606      3.0603227    
     10660   1.5002635     -5.1799011      0             -2.9305301      3.0579631    
     10670   1.4861114     -5.1587906      0             -2.9306382      3.1425091    
     10680   1.4600984     -5.1204912      0             -2.9313406      3.3193578    
     10690   1.478213      -5.1473484      0             -2.9310382      3.2288753    
     10700   1.4733857     -5.13995        0             -2.9308773      3.2801283    
     10710   1.4505833     -5.1051907      0             -2.9303062      3.4209463    
     10720   1.495415      -5.1723688      0             -2.9302672      3.1621874    
     10730   1.4708811     -5.1354849      0             -2.9301674      3.2755267    
     10740   1.4616665     -5.1224001      0             -2.9308983      3.3208598    
     10750   1.4751928     -5.1427918      0             -2.9310098      3.2395533    
     10760   1.4752017     -5.1427217      0             -2.9309264      3.2281278    
     10770   1.4711711     -5.1365822      0             -2.93083        3.2650796    
     10780   1.4961788     -5.174044       0             -2.9307974      3.1235255    
     10790   1.4846161     -5.156619       0             -2.9307085      3.1733377    
     10800   1.4681106     -5.1323814      0             -2.9312178      3.2474093    
     10810   1.5061647     -5.1898256      0             -2.9316069      3.070174     
     10820   1.4626604     -5.1240643      0             -2.9310723      3.3266764    
     10830   1.4753196     -5.1430905      0             -2.9311184      3.2608765    
     10840   1.4748605     -5.1425605      0             -2.9312766      3.2280444    
     10850   1.4795478     -5.14912        0             -2.9308085      3.1867808    
     10860   1.4801101     -5.149795       0             -2.9306404      3.187396     
     10870   1.4952935     -5.1729161      0             -2.9309967      3.0993191    
     10880   1.4939014     -5.1711713      0             -2.9313391      3.0995       
     10890   1.4685586     -5.1332306      0             -2.9313954      3.224318     
     10900   1.4817124     -5.152883       0             -2.9313261      3.144169     
     10910   1.4965099     -5.1761774      0             -2.9324343      3.0826438    
     10920   1.490169      -5.1660595      0             -2.9318234      3.1360728    
     10930   1.5118497     -5.1989228      0             -2.9321804      2.9962455    
     10940   1.4921698     -5.1684483      0             -2.9312124      3.0975259    
     10950   1.4785133     -5.147907       0             -2.9311465      3.1848895    
     10960   1.4734287     -5.1402117      0             -2.9310747      3.1934235    
     10970   1.5092912     -5.1946085      0             -2.9317021      2.9741544    
     10980   1.4974186     -5.1769814      0             -2.9318758      3.0345501    
     10990   1.4890548     -5.163717       0             -2.9311515      3.0801042    
     11000   1.4732057     -5.1397718      0             -2.930969       3.2063827    
     11010   1.4557302     -5.114075       0             -2.9314736      3.3364393    
     11020   1.4545505     -5.1115579      0             -2.9307253      3.352089     
     11030   1.4820415     -5.1529878      0             -2.9309374      3.1590868    
     11040   1.4926317     -5.1680404      0             -2.9301119      3.0961225    
     11050   1.4788442     -5.1487726      0             -2.931516       3.1957304    
     11060   1.4600549     -5.120721       0             -2.9316355      3.3223694    
     11070   1.4795946     -5.1502702      0             -2.9318885      3.1978916    
     11080   1.4708376     -5.1365907      0             -2.9313386      3.2441992    
     11090   1.4811771     -5.1522514      0             -2.931497       3.1974136    
     11100   1.4835868     -5.1557649      0             -2.9313976      3.1743216    
     11110   1.4649213     -5.1271309      0             -2.9307491      3.2615423    
     11120   1.4686711     -5.1328466      0             -2.9308428      3.2431304    
     11130   1.4701362     -5.1341728      0             -2.9299721      3.2338721    
     11140   1.4664276     -5.1286057      0             -2.9299654      3.2699667    
     11150   1.4780593     -5.1470735      0             -2.9309937      3.2195442    
     11160   1.4678516     -5.1309874      0             -2.9302122      3.2409748    
     11170   1.5054529     -5.1877126      0             -2.9305611      3.0417016    
     11180   1.485685      -5.1575117      0             -2.9299985      3.1683933    
     11190   1.4594154     -5.1180825      0             -2.9299558      3.3165414    
     11200   1.485709      -5.1579461      0             -2.930397       3.1647974    
     11210   1.4518593     -5.1078473      0             -2.9310495      3.3300128    
     11220   1.4804773     -5.1505665      0             -2.9308613      3.1749006    
     11230   1.4717513     -5.1382253      0             -2.9316032      3.2093853    
     11240   1.490775      -5.1675361      0             -2.9323914      3.1125186    
     11250   1.5010617     -5.1820863      0             -2.9315185      3.0598776    
     11260   1.4821638     -5.1538579      0             -2.9316241      3.1854308    
     11270   1.4731377     -5.1406296      0             -2.9319289      3.249149     
     11280   1.4652536     -5.1282532      0             -2.9313733      3.3140613    
     11290   1.4684595     -5.1328309      0             -2.9311442      3.2640805    
     11300   1.4754102     -5.1426601      0             -2.9305521      3.2057699    
     11310   1.492957      -5.1694862      0             -2.9310701      3.1073096    
     11320   1.4666269     -5.129271       0             -2.930332       3.2778099    
     11330   1.4649624     -5.1271378      0             -2.9306945      3.3234736    
     11340   1.5097563     -5.1946391      0             -2.9310355      3.0758137    
     11350   1.4710426     -5.1366412      0             -2.9310816      3.2545847    
     11360   1.4748624     -5.142639       0             -2.9313524      3.2166913    
     11370   1.47647       -5.1442913      0             -2.9305943      3.1742574    
     11380   1.4730541     -5.1391307      0             -2.9305553      3.1876211    
     11390   1.470413      -5.1356692      0             -2.9310536      3.2086125    
     11400   1.4916736     -5.1678214      0             -2.9313295      3.1201786    
     11410   1.4764706     -5.1449681      0             -2.9312702      3.2047295    
     11420   1.4670504     -5.1316433      0             -2.9320693      3.2286678    
     11430   1.4864453     -5.1606207      0             -2.9319676      3.1162249    
     11440   1.5160478     -5.204788       0             -2.9317515      2.9789902    
     11450   1.4624104     -5.1237034      0             -2.9310863      3.2404692    
     11460   1.4824831     -5.1541685      0             -2.931456       3.1158083    
     11470   1.487731      -5.1619768      0             -2.931396       3.1027372    
     11480   1.4751692     -5.1432544      0             -2.9315077      3.1691704    
     11490   1.4685864     -5.1335885      0             -2.9317116      3.227852     
     11500   1.4711536     -5.1373402      0             -2.9316143      3.2643818    
     11510   1.4586302     -5.1175303      0             -2.9305808      3.3357816    
     11520   1.483067      -5.1536626      0             -2.9300746      3.1964315    
     11530   1.4464623     -5.0989255      0             -2.9302197      3.4103664    
     11540   1.4632067     -5.1235112      0             -2.9297002      3.3396034    
     11550   1.4707544     -5.1354376      0             -2.9303102      3.2910817    
     11560   1.4643812     -5.1256757      0             -2.9301037      3.2991806    
     11570   1.4675699     -5.1314383      0             -2.9310855      3.2578256    
     11580   1.4933024     -5.170368       0             -2.9314339      3.1199469    
     11590   1.4884469     -5.1620945      0             -2.9304404      3.1269104    
     11600   1.4580932     -5.1172756      0             -2.9311314      3.3046283    
     11610   1.468683      -5.1335512      0             -2.9315294      3.2215754    
     11620   1.4899872     -5.1655946      0             -2.931631       3.0853484    
     11630   1.4963134     -5.1747464      0             -2.931298       3.0426634    
     11640   1.4888972     -5.1637215      0             -2.9313922      3.0794404    
     11650   1.4703321     -5.1363384      0             -2.9318441      3.180905     
     11660   1.4604447     -5.1214887      0             -2.9318188      3.2809224    
     11670   1.4765776     -5.1446357      0             -2.9307775      3.2004193    
     11680   1.4761333     -5.1435232      0             -2.930331       3.1819717    
     11690   1.5017186     -5.1825478      0             -2.9309952      3.0547432    
     11700   1.4719301     -5.1381499      0             -2.9312598      3.2392452    
     11710   1.4582822     -5.1177031      0             -2.9312754      3.3262925    
     11720   1.4671066     -5.1304965      0             -2.9308382      3.2551436    
     11730   1.4819437     -5.1533224      0             -2.9314187      3.1454292    
     11740   1.471462      -5.1378541      0             -2.9316657      3.2178775    
     11750   1.488637      -5.1635207      0             -2.9315816      3.145576     
     11760   1.4702496     -5.1361717      0             -2.9318011      3.2266297    
     11770   1.4842977     -5.1572406      0             -2.9318075      3.1062566    
     11780   1.4922164     -5.1686853      0             -2.9313795      3.0419471    
     11790   1.4671322     -5.1309016      0             -2.9312049      3.2048965    
     11800   1.4757497     -5.1437087      0             -2.9310918      3.1690413    
     11810   1.5045799     -5.1872454      0             -2.9314029      3.0402857    
     11820   1.4482586     -5.1021444      0             -2.9307453      3.3356905    
     11830   1.4835316     -5.1552342      0             -2.9309497      3.119572     
     11840   1.4876886     -5.1621472      0             -2.9316301      3.0819743    
     11850   1.4892445     -5.164598       0             -2.9317479      3.0932553    
     11860   1.4879671     -5.162257       0             -2.9313224      3.1154595    
     11870   1.4813661     -5.1521831      0             -2.9311454      3.1609228    
     11880   1.4749498     -5.1422265      0             -2.9308089      3.1934399    
     11890   1.477771      -5.146791       0             -2.9311435      3.2043236    
     11900   1.472045      -5.1375598      0             -2.9304974      3.2095154    
     11910   1.4827214     -5.1534814      0             -2.9304116      3.130497     
     11920   1.4630667     -5.1246244      0             -2.9310233      3.2777184    
     11930   1.4672743     -5.1311353      0             -2.9312256      3.2769562    
     11940   1.4919744     -5.1678733      0             -2.9309304      3.1162541    
     11950   1.4630668     -5.1245775      0             -2.9309762      3.2559388    
     11960   1.4690573     -5.133491       0             -2.9309081      3.2504584    
     11970   1.5008395     -5.1818807      0             -2.9316461      3.0872759    
     11980   1.4663244     -5.1303552      0             -2.9318697      3.273792     
     11990   1.4791091     -5.1498875      0             -2.9322338      3.2051818    
     12000   1.4732189     -5.1408012      0             -2.9319786      3.2362719    
Loop time of 15.4935 on 1 procs for 10000 steps with 2197 atoms

Performance: 278826.065 tau/day, 645.431 timesteps/s, 1.418 Matom-step/s
99.9% CPU use with 1 MPI tasks x no OpenMP threads

MPI task timing breakdown:
Section |  min time  |  avg time  |  max time  |%varavg| %total
---------------------------------------------------------------
Pair    | 11.59      | 11.59      | 11.59      |   0.0 | 74.81
Neigh   | 3.3709     | 3.3709     | 3.3709     |   0.0 | 21.76
Comm    | 0.2077     | 0.2077     | 0.2077     |   0.0 |  1.34
Output  | 0.0067257  | 0.0067257  | 0.0067257  |   0.0 |  0.04
Modify  | 0.24496    | 0.24496    | 0.24496    |   0.0 |  1.58
Other   |            | 0.07283    |            |       |  0.47

Nlocal:           2197 ave        2197 max        2197 min
Histogram: 1 0 0 0 0 0 0 0 0 0
Nghost:           3834 ave        3834 max        3834 min
Histogram: 1 0 0 0 0 0 0 0 0 0
Neighs:          78899 ave       78899 max       78899 min
Histogram: 1 0 0 0 0 0 0 0 0 0

Total # of neighbors = 78899
Ave neighs/atom = 35.912153
Neighbor list builds = 1604
Dangerous builds = 0
Total wall time: 0:00:18
