LAMMPS (3 Aug 2023 - Development - )
Created orthogonal box = (0 0 0) to (14 14 14)
  1 by 1 by 1 MPI processor grid
Lattice spacing in x,y,z = 1.1006424 1.1006424 1.1006424
Created 2197 atoms
  using lattice units in orthogonal box = (0 0 0) to (14 14 14)
  create_atoms CPU = 0.000 seconds
Generated 0 of 0 mixed pair_coeff terms from geometric mixing rule
Neighbor list info ...
  update: every = 1 steps, delay = 0 steps, check = yes
  max neighbors/atom: 2000, page size: 100000
  master list distance cutoff = 2.8
  ghost atom cutoff = 2.8
  binsize = 1.4, bins = 10 10 10
  1 neighbor lists, perpetual/occasional/extra = 1 0 0
  (1) pair lj/cut, perpetual
      attributes: half, newton on
      pair build: half/bin/atomonly/newton
      stencil: half/bin/3d
      bin: standard
Setting up Verlet run ...
  Unit style    : lj
  Current step  : 0
  Time step     : 0.005
Per MPI rank memory allocation (min/avg/max) = 3.241 | 3.241 | 3.241 Mbytes
   Step          Temp          E_pair         E_mol          TotEng         Press     
         0   1              5.5678596      0              7.0671768      39.872949    
        10   4.7595888     -0.38863822     0              6.7474954      23.75257     
        20   5.4968556     -1.5140083      0              6.7275221      20.911382    
        30   6.0459272     -2.3350462      0              6.7297166      18.433722    
        40   6.218394      -2.5899274      0              6.7334179      17.856972    
        50   6.0985863     -2.408285       0              6.7354306      18.77515     
        60   5.9812806     -2.2361341      0              6.7317031      19.554199    
        70   5.6774922     -1.7868998      0              6.7254622      21.381068    
        80   5.6412061     -1.734513       0              6.7234445      21.688643    
        90   5.6676228     -1.7712211      0              6.7263434      21.659531    
       100   5.8614004     -2.0597445      0              6.7283542      20.599301    
       110   5.8679764     -2.0648389      0              6.7331194      20.345869    
       120   6.061048      -2.3557308      0              6.7317029      19.274509    
       130   6.0960276     -2.4065065      0              6.7333728      18.83009     
       140   6.2144382     -2.5783139      0              6.7391005      17.96858     
       150   6.1958633     -2.5493029      0              6.7402618      17.988284    
       160   6.2746323     -2.6670234      0              6.7406411      17.439107    
       170   6.2286305     -2.5983768      0              6.7403164      17.60783     
       180   6.1984139     -2.5493944      0              6.7439945      17.686611    
       190   6.1402278     -2.4661259      0              6.7400235      18.005871    
       200   6.0680396     -2.3574269      0              6.7404895      18.32425     
       210   5.978625      -2.2295482      0              6.7343074      18.822159    
       220   6.0954598     -2.4003874      0              6.7386406      18.257314    
       230   6.0317892     -2.3085953      0              6.7349704      18.559345    
       240   6.0052113     -2.263892       0              6.7398249      18.767674    
       250   6.0266945     -2.2975326      0              6.7383944      18.619351    
       260   6.1123567     -2.4217201      0              6.7426418      18.196969    
       270   6.0860073     -2.3826287      0              6.7422271      18.364073    
       280   6.1241919     -2.4377712      0              6.7443354      18.170677    
       290   6.1991235     -2.5542353      0              6.7402174      17.713285    
       300   6.0458801     -2.3225663      0              6.742126       18.495572    
       310   6.0795407     -2.3724614      0              6.7426989      18.352782    
       320   6.0084838     -2.2668704      0              6.741753       18.743142    
       330   6.0437352     -2.3198274      0              6.741649       18.616088    
       340   6.0088361     -2.2690196      0              6.740132       18.790481    
       350   6.0188255     -2.2867518      0              6.7373771      18.786164    
       360   6.0297666     -2.3036844      0              6.7368486      18.776485    
       370   5.9355934     -2.1572635      0              6.7420741      19.291996    
       380   6.022944      -2.2901353      0              6.7401686      18.712791    
       390   5.9787176     -2.2222243      0              6.7417702      18.890444    
       400   6.1030131     -2.4075501      0              6.7428028      18.254741    
       410   6.1315031     -2.4500581      0              6.7430103      18.133293    
       420   6.0954208     -2.3965133      0              6.7424562      18.254511    
       430   6.1448646     -2.4701551      0              6.7429465      17.985078    
       440   6.0876392     -2.3857596      0              6.7415429      18.247327    
       450   6.1129734     -2.4256099      0              6.7396766      18.13659     
       460   6.1457875     -2.4725478      0              6.7419375      17.923303    
       470   6.0628738     -2.347362       0              6.7428094      18.318791    
       480   6.1085524     -2.4154492      0              6.7432088      18.156585    
       490   5.9888712     -2.236788       0              6.7424299      18.715108    
       500   6.0194153     -2.2832405      0              6.7417727      18.579028    
       510   6.029269      -2.2956597      0              6.7441273      18.557461    
       520   6.0725919     -2.360878       0              6.7438638      18.360949    
       530   6.0670073     -2.3522935      0              6.7440752      18.386671    
       540   6.0737883     -2.3637451      0              6.7427904      18.268561    
       550   6.0877279     -2.3869174      0              6.7405181      18.223882    
       560   6.1054947     -2.4105605      0              6.743513       18.09484     
       570   6.083474      -2.378821       0              6.7422365      18.219521    
       580   6.1684232     -2.5078353      0              6.740588       17.830811    
       590   6.0705105     -2.3586841      0              6.7429371      18.391828    
       600   6.1185629     -2.4310366      0              6.7426303      18.088198    
       610   6.1302187     -2.4479407      0              6.743202       18.040187    
       620   6.1428714     -2.4700756      0              6.7400374      18.022269    
       630   6.0223987     -2.2898075      0              6.7396787      18.699251    
       640   6.0007918     -2.2561623      0              6.7409283      18.868157    
       650   6.1130283     -2.4257736      0              6.7395953      18.219677    
       660   6.0370098     -2.3107362      0              6.7406567      18.623961    
       670   6.0181361     -2.2832197      0              6.7398756      18.621748    
       680   6.1860635     -2.534157       0              6.7407147      17.793643    
       690   6.1428944     -2.4661106      0              6.7440369      18.021512    
       700   6.0543002     -2.3350814      0              6.7422353      18.46436     
       710   6.044376      -2.3202569      0              6.7421803      18.512781    
       720   6.0384556     -2.3118572      0              6.7417035      18.507835    
       730   6.0717827     -2.3589015      0              6.744627       18.321625    
       740   5.9741904     -2.2155637      0              6.741643       18.804123    
       750   6.0830278     -2.3782699      0              6.7421186      18.222293    
       760   6.2066111     -2.5653362      0              6.7403428      17.621305    
       770   6.0156084     -2.2743469      0              6.7449585      18.629986    
       780   6.095191      -2.398627       0              6.739998       18.212517    
       790   6.1156914     -2.4279736      0              6.741388       18.107507    
       800   6.1706176     -2.510973       0              6.7407404      17.779577    
       810   6.0824595     -2.3781804      0              6.7413561      18.23555     
       820   6.0458938     -2.3227461      0              6.7419667      18.4664      
       830   6.096195      -2.3985482      0              6.7415821      18.197853    
       840   6.0096092     -2.2686275      0              6.7416832      18.661547    
       850   6.1030684     -2.410022       0              6.7404137      18.172114    
       860   6.0430184     -2.3175839      0              6.7428178      18.514287    
       870   6.0335079     -2.3035029      0              6.7426397      18.562499    
       880   6.18877       -2.5393809      0              6.7395486      17.788701    
       890   5.934408      -2.1532484      0              6.7443118      19.065175    
       900   6.1682124     -2.50835        0              6.7397572      17.85282     
       910   6.0812971     -2.3769973      0              6.7407963      18.301712    
       920   6.0933894     -2.3942979      0              6.7416259      18.206004    
       930   6.0978114     -2.3982152      0              6.7443386      18.270519    
       940   6.1492858     -2.4803086      0              6.7394217      17.95345     
       950   5.9990176     -2.254506       0              6.7399247      18.619986    
       960   6.0341        -2.3073523      0              6.7396779      18.477269    
       970   6.0399171     -2.3116762      0              6.7440756      18.468681    
       980   6.0444441     -2.3189166      0              6.7436226      18.470902    
       990   6.0896239     -2.3867304      0              6.7435478      18.229349    
      1000   6.0714064     -2.361436       0              6.7415284      18.317629    
Loop time of 1.59959 on 1 procs for 1000 steps with 2197 atoms

Performance: 270069.138 tau/day, 625.160 timesteps/s, 1.373 Matom-step/s
100.0% CPU use with 1 MPI tasks x no OpenMP threads

MPI task timing breakdown:
Section |  min time  |  avg time  |  max time  |%varavg| %total
---------------------------------------------------------------
Pair    | 0.84065    | 0.84065    | 0.84065    |   0.0 | 52.55
Neigh   | 0.69877    | 0.69877    | 0.69877    |   0.0 | 43.68
Comm    | 0.034927   | 0.034927   | 0.034927   |   0.0 |  2.18
Output  | 0.00076615 | 0.00076615 | 0.00076615 |   0.0 |  0.05
Modify  | 0.013691   | 0.013691   | 0.013691   |   0.0 |  0.86
Other   |            | 0.01078    |            |       |  0.67

Nlocal:           2197 ave        2197 max        2197 min
Histogram: 1 0 0 0 0 0 0 0 0 0
Nghost:           3863 ave        3863 max        3863 min
Histogram: 1 0 0 0 0 0 0 0 0 0
Neighs:          79710 ave       79710 max       79710 min
Histogram: 1 0 0 0 0 0 0 0 0 0

Total # of neighbors = 79710
Ave neighs/atom = 36.281293
Neighbor list builds = 318
Dangerous builds = 0
Generated 0 of 0 mixed pair_coeff terms from geometric mixing rule
Setting up Verlet run ...
  Unit style    : lj
  Current step  : 1000
  Time step     : 0.005
Per MPI rank memory allocation (min/avg/max) = 3.244 | 3.244 | 3.244 Mbytes
   Step          Temp          E_pair         E_mol          TotEng         Press     
      1000   6.0714064     -2.361436       0              6.7415284      18.317629    
      1010   4.6485849     -2.6522321      0              4.3174715      16.065488    
      1020   3.6042196     -3.398742       0              2.0051267      12.295466    
      1030   2.7643855     -3.8855246      0              0.25916637     9.6013768    
      1040   2.2549179     -4.3942146      0             -1.0133774      7.0980868    
      1050   1.7996198     -4.6398753      0             -1.9416743      5.6898841    
      1060   1.5281607     -4.9089726      0             -2.6177748      4.3321145    
      1070   1.3080642     -5.0851947      0             -3.1239914      3.3651625    
      1080   1.1655491     -5.2491248      0             -3.5015969      2.5287154    
      1090   1.050808      -5.3577329      0             -3.7822384      1.9211115    
      1100   0.99343264    -5.4773271      0             -3.9878564      1.3473162    
      1110   0.91246223    -5.4984694      0             -4.130399       1.1715215    
      1120   0.91480855    -5.5734879      0             -4.2018996      0.8156574    
      1130   0.93523916    -5.6157338      0             -4.2135136      0.60514069   
      1140   0.95124152    -5.605587       0             -4.1793742      0.64169196   
      1150   0.97988497    -5.5805822      0             -4.1114238      0.7698348    
      1160   1.0186873     -5.5580207      0             -4.0306852      0.9176479    
      1170   1.0356137     -5.5148666      0             -3.962153       1.1515845    
      1180   1.0407068     -5.479884       0             -3.9195343      1.3333577    
      1190   1.0401122     -5.4705127      0             -3.9110545      1.3752123    
      1200   1.04713       -5.506839       0             -3.9368589      1.2439834    
      1210   1.0056492     -5.4988874      0             -3.9911003      1.2590265    
      1220   0.98292768    -5.5210425      0             -4.0473221      1.1503747    
      1230   0.97819115    -5.5581555      0             -4.0915366      0.97432204   
      1240   0.96158634    -5.559578       0             -4.117855       0.92563302   
      1250   0.98859235    -5.6030673      0             -4.1208538      0.74886071   
      1260   0.99187362    -5.5997476      0             -4.1126144      0.74894515   
      1270   0.96809103    -5.5474354      0             -4.0959598      0.94015683   
      1280   0.99423708    -5.5507815      0             -4.0601047      0.94206654   
      1290   1.0244023     -5.5566236      0             -4.0207196      0.93625942   
      1300   1.0368829     -5.5531717      0             -3.9985553      0.9623566    
      1310   1.0105822     -5.5179295      0             -4.0027463      1.1165866    
      1320   1.0021442     -5.517613       0             -4.015081       1.1421936    
      1330   0.98835947    -5.5090203      0             -4.0271559      1.1651468    
      1340   1.0004329     -5.5325332      0             -4.0325669      1.0695257    
      1350   0.98361585    -5.5102737      0             -4.0355215      1.1398903    
      1360   1.0127718     -5.550532       0             -4.0320658      1.0082644    
      1370   1.003788      -5.5394549      0             -4.0344582      1.0664329    
      1380   0.98601152    -5.515021       0             -4.0366769      1.1713177    
      1390   0.99666281    -5.5254701      0             -4.0311564      1.1452365    
      1400   1.0054759     -5.5307211      0             -4.0231937      1.1158823    
      1410   0.99864273    -5.5137916      0             -4.0165093      1.1506676    
      1420   1.0146044     -5.5330987      0             -4.0118848      1.0466908    
      1430   1.0034905     -5.5211562      0             -4.0166055      1.0696277    
      1440   1.0093444     -5.5372967      0             -4.0239692      0.99782859   
      1450   1.0058305     -5.5462545      0             -4.0381956      0.94121177   
      1460   1.0064488     -5.5682445      0             -4.0592584      0.87648247   
      1470   0.98903832    -5.5644107      0             -4.0815285      0.91525742   
      1480   0.99200865    -5.5847879      0             -4.0974523      0.85608081   
      1490   0.97204418    -5.5625164      0             -4.1051138      0.92666081   
      1500   0.98035893    -5.5640257      0             -4.0941567      0.91230435   
      1510   1.000003      -5.5683874      0             -4.0690656      0.88913526   
      1520   0.99843052    -5.5386229      0             -4.0416588      1.0021226    
      1530   0.9996934     -5.5127648      0             -4.0139073      1.1382742    
      1540   1.0086072     -5.5000074      0             -3.9877852      1.2197982    
      1550   1.037699      -5.5256194      0             -3.9697794      1.1357211    
      1560   1.0186041     -5.5023578      0             -3.9751472      1.2213918    
      1570   1.0068655     -5.5066475      0             -3.9970367      1.1984279    
      1580   1.0042455     -5.5319639      0             -4.0262813      1.0960444    
      1590   0.98312717    -5.528351       0             -4.0543315      1.0813773    
      1600   0.99875077    -5.5704007      0             -4.0729565      0.92384899   
      1610   0.97414633    -5.5467579      0             -4.0862035      0.99249403   
      1620   0.99381609    -5.5742079      0             -4.0841622      0.87689959   
      1630   0.99334701    -5.5640336      0             -4.0746913      0.92130963   
      1640   1.0015548     -5.5653605      0             -4.063712       0.9695871    
      1650   0.99084801    -5.5352178      0             -4.0496223      1.104513     
      1660   1.0133678     -5.5488864      0             -4.0295266      1.0546486    
      1670   1.0238649     -5.5554344      0             -4.0203361      1.0259005    
      1680   1.0078696     -5.5365371      0             -4.0254208      1.0780803    
      1690   1.0063001     -5.5479946      0             -4.0392314      1.0219598    
      1700   0.97583104    -5.5198042      0             -4.0567239      1.118399     
      1710   0.9829602     -5.5339936      0             -4.0602244      1.0631382    
      1720   1.0048545     -5.5583953      0             -4.0517996      0.94997658   
      1730   1.0133748     -5.5661895      0             -4.0468192      0.92252946   
      1740   0.99988806    -5.5487512      0             -4.0496018      1.0022243    
      1750   0.99242022    -5.5399904      0             -4.0520377      1.0426697    
      1760   0.9930445     -5.5400035      0             -4.0511148      1.0668123    
      1770   0.98947042    -5.527893       0             -4.044363       1.1163247    
      1780   1.0072517     -5.5415974      0             -4.0314076      1.0368073    
      1790   1.0104027     -5.5362654      0             -4.0213512      1.0357485    
      1800   1.0316492     -5.5675599      0             -4.0207905      0.90294043   
      1810   1.0061648     -5.5492535      0             -4.0406933      0.97170289   
      1820   0.98472515    -5.5440821      0             -4.0676667      1.0057441    
      1830   0.99184869    -5.5732283      0             -4.0861324      0.88533625   
      1840   0.96322796    -5.5371471      0             -4.0929628      1.0232312    
      1850   0.96993145    -5.5306885      0             -4.0764536      1.0589259    
      1860   0.99753333    -5.5346109      0             -4.0389919      1.067303     
      1870   1.0168864     -5.5235089      0             -3.9988735      1.1173099    
      1880   1.0539651     -5.5523059      0             -3.9720779      0.98978387   
      1890   1.0416724     -5.5436014      0             -3.9818039      0.985913     
      1900   1.0189723     -5.5543772      0             -4.0266144      0.94059697   
      1910   0.97773803    -5.5467872      0             -4.0808477      0.95164205   
      1920   0.97152633    -5.5760434      0             -4.1194172      0.82889082   
      1930   0.96289217    -5.5815573      0             -4.1378764      0.80013613   
      1940   0.96707727    -5.5804552      0             -4.1304995      0.80227648   
      1950   0.99380378    -5.5897227      0             -4.0996955      0.79477089   
      1960   1.0017309     -5.5647854      0             -4.062873       0.92368109   
      1970   1.0385885     -5.5882805      0             -4.0311068      0.88714524   
      1980   1.001199      -5.5207861      0             -4.0196713      1.1563458    
      1990   1.0178264     -5.5436116      0             -4.0175669      1.0893534    
      2000   1.0107103     -5.5434233      0             -4.0280479      1.0727452    
Loop time of 1.09865 on 1 procs for 1000 steps with 2197 atoms

Performance: 393208.492 tau/day, 910.205 timesteps/s, 2.000 Matom-step/s
100.0% CPU use with 1 MPI tasks x no OpenMP threads

MPI task timing breakdown:
Section |  min time  |  avg time  |  max time  |%varavg| %total
---------------------------------------------------------------
Pair    | 0.75859    | 0.75859    | 0.75859    |   0.0 | 69.05
Neigh   | 0.28858    | 0.28858    | 0.28858    |   0.0 | 26.27
Comm    | 0.020221   | 0.020221   | 0.020221   |   0.0 |  1.84
Output  | 0.00069658 | 0.00069658 | 0.00069658 |   0.0 |  0.06
Modify  | 0.022151   | 0.022151   | 0.022151   |   0.0 |  2.02
Other   |            | 0.008418   |            |       |  0.77

Nlocal:           2197 ave        2197 max        2197 min
Histogram: 1 0 0 0 0 0 0 0 0 0
Nghost:           3853 ave        3853 max        3853 min
Histogram: 1 0 0 0 0 0 0 0 0 0
Neighs:          78520 ave       78520 max       78520 min
Histogram: 1 0 0 0 0 0 0 0 0 0

Total # of neighbors = 78520
Ave neighs/atom = 35.739645
Neighbor list builds = 138
Dangerous builds = 0
Generated 0 of 0 mixed pair_coeff terms from geometric mixing rule
Setting up Verlet run ...
  Unit style    : lj
  Current step  : 2000
  Time step     : 0.005
Per MPI rank memory allocation (min/avg/max) = 3.244 | 3.244 | 3.244 Mbytes
   Step          Temp          E_pair         E_mol          TotEng         Press     
      2000   1.0107103     -5.5434233      0             -4.0280479      1.0727452    
      2010   1.0112413     -5.544098       0             -4.0279264      1.079841     
      2020   0.9979589     -5.5233073      0             -4.0270503      1.1430371    
      2030   1.0133166     -5.5468124      0             -4.0275294      1.0374768    
      2040   0.99607179    -5.5213052      0             -4.0278776      1.1296832    
      2050   0.99864876    -5.5244966      0             -4.0272053      1.1083031    
      2060   1.0065647     -5.5363143      0             -4.0271546      1.069818     
      2070   1.0044609     -5.5325531      0             -4.0265476      1.0868542    
      2080   1.0010235     -5.5283326      0             -4.0274808      1.1054583    
      2090   1.0043299     -5.5335354      0             -4.0277263      1.0713619    
      2100   1.0057724     -5.5355617      0             -4.0275898      1.0476151    
      2110   1.0098294     -5.5414766      0             -4.027422       1.0203958    
      2120   0.99701323    -5.5218636      0             -4.0270245      1.080004     
      2130   1.0016015     -5.5285685      0             -4.0268501      1.0717121    
      2140   0.9939603     -5.5175277      0             -4.0272658      1.13647      
      2150   1.0099286     -5.5415505      0             -4.0273472      1.0457725    
      2160   1.0131016     -5.5464709      0             -4.0275101      0.99553626   
      2170   0.9967076     -5.5222095      0             -4.0278286      1.0841787    
      2180   0.99975918    -5.5268044      0             -4.0278483      1.0586491    
      2190   1.024504      -5.5646761      0             -4.0286195      0.92349266   
      2200   0.99269454    -5.5168402      0             -4.0284762      1.1263775    
      2210   1.0017068     -5.5297983      0             -4.0279221      1.0877085    
      2220   1.015514      -5.5511205      0             -4.0285429      1.0366312    
      2230   1.0032307     -5.5325771      0             -4.028416       1.1214401    
      2240   1.0390281     -5.5868843      0             -4.0290515      0.91546929   
      2250   1.0023969     -5.5311013      0             -4.0281903      1.1016445    
      2260   0.99574073    -5.5212363      0             -4.0283051      1.1577589    
      2270   1.0050985     -5.5356511      0             -4.0286895      1.1157008    
      2280   1.0037964     -5.533324       0             -4.0283147      1.1207933    
      2290   1.0167059     -5.5525729      0             -4.0282081      1.0155563    
      2300   1.0312582     -5.5743794      0             -4.0281963      0.89666665   
      2310   1.0153825     -5.5502051      0             -4.0278246      1.0008339    
      2320   0.99529882    -5.520053       0             -4.0277843      1.1230174    
      2330   0.98966548    -5.5118372      0             -4.0280147      1.1446545    
      2340   0.99467845    -5.518914       0             -4.0275754      1.1178082    
      2350   0.98092439    -5.4983235      0             -4.0276067      1.1754646    
      2360   1.0096151     -5.5417719      0             -4.0280385      1.0251033    
      2370   1.0104777     -5.543462       0             -4.0284354      1.0276806    
      2380   1.0007345     -5.5282085      0             -4.0277901      1.1023217    
      2390   0.99820444    -5.5247529      0             -4.0281277      1.1067551    
      2400   1.0142666     -5.5485289      0             -4.0278216      1.0219371    
      2410   0.99026606    -5.5126886      0             -4.0279656      1.1479678    
      2420   0.99441165    -5.5187686      0             -4.0278301      1.1180884    
      2430   1.0019641     -5.5292534      0             -4.0269913      1.075246     
      2440   1.0214871     -5.5590965      0             -4.0275632      0.98959208   
      2450   0.98990754    -5.5117524      0             -4.027567       1.1650003    
      2460   1.0104175     -5.5427373      0             -4.0278009      1.0475685    
      2470   1.0051578     -5.5347024      0             -4.027652       1.0761253    
      2480   0.99305364    -5.5170769      0             -4.0281744      1.1463379    
      2490   0.99834209    -5.5246496      0             -4.0278181      1.1217627    
      2500   1.0025655     -5.5310713      0             -4.0279076      1.0705917    
      2510   1.0263346     -5.5666291      0             -4.0278279      0.90770146   
      2520   1.0103101     -5.5427668      0             -4.0279914      0.98769391   
      2530   1.0095539     -5.5413828      0             -4.0277412      1.0043545    
      2540   1.017712      -5.5537677      0             -4.0278945      0.97401125   
      2550   1.0059213     -5.5361716      0             -4.0279765      1.0375515    
      2560   1.008295      -5.539467       0             -4.0277129      1.0406076    
      2570   1.00463       -5.5343485      0             -4.0280894      1.057        
      2580   1.0009111     -5.5279714      0             -4.0272881      1.0757262    
      2590   0.9934556     -5.5165037      0             -4.0269986      1.1392285    
      2600   1.006474      -5.5359977      0             -4.0269739      1.053386     
      2610   1.0132952     -5.5465363      0             -4.0272853      0.9948964    
      2620   1.0093223     -5.5406079      0             -4.0273135      1.0204088    
      2630   1.0011105     -5.5283924      0             -4.0274102      1.0699778    
      2640   1.0100321     -5.541694       0             -4.0273355      1.0352889    
      2650   1.0034884     -5.5314052      0             -4.0268577      1.1060906    
      2660   0.99111992    -5.5132525      0             -4.0272493      1.1875935    
      2670   1.0006101     -5.5274775      0             -4.0272454      1.1219539    
      2680   1.0074578     -5.5381137      0             -4.0276149      1.0718965    
      2690   1.0048819     -5.5350463      0             -4.0284096      1.0926484    
      2700   1.0034633     -5.5324828      0             -4.027973       1.0899288    
      2710   1.0150633     -5.549495       0             -4.027593       1.0195016    
      2720   1.0118071     -5.5444147      0             -4.0273949      1.0289123    
      2730   1.0227284     -5.5606075      0             -4.0272131      0.95372632   
      2740   0.99340135    -5.517046       0             -4.0276222      1.091536     
      2750   1.0235806     -5.5625148      0             -4.0278427      0.92848591   
      2760   0.99593658    -5.5204623      0             -4.0272374      1.0821034    
      2770   1.011193      -5.5437644      0             -4.0276653      1.0215531    
      2780   1.013055      -5.5469926      0             -4.0281018      1.021783     
      2790   0.99540883    -5.5200932      0             -4.0276595      1.0973568    
      2800   1.017186      -5.5527104      0             -4.0276258      0.97132244   
      2810   0.99789961    -5.5236658      0             -4.0274977      1.0901216    
      2820   0.98683551    -5.5070667      0             -4.0274872      1.1646741    
      2830   1.0091893     -5.5409112      0             -4.0278162      1.0435555    
      2840   0.99518734    -5.5196821      0             -4.0275806      1.1226763    
      2850   1.0066891     -5.5365882      0             -4.0272419      1.0701157    
      2860   1.0183055     -5.5540933      0             -4.0273302      1.0115606    
      2870   1.003012      -5.5312573      0             -4.0274242      1.0919276    
      2880   1.0139436     -5.5481021      0             -4.0278789      1.0321008    
      2890   1.0091611     -5.5410724      0             -4.0280197      1.046098     
      2900   0.99919579    -5.5257724      0             -4.0276609      1.091848     
      2910   0.99234362    -5.5156727      0             -4.0278348      1.112048     
      2920   1.0091378     -5.5404009      0             -4.0273831      1.0075658    
      2930   0.99210508    -5.5149266      0             -4.0274463      1.1021361    
      2940   1.004571      -5.5337108      0             -4.0275402      1.0569273    
      2950   0.99158516    -5.5140629      0             -4.0273622      1.1498074    
      2960   1.003808      -5.5323494      0             -4.0273228      1.0697721    
      2970   1.012379      -5.544501       0             -4.0266237      1.0048172    
      2980   0.99996382    -5.5266974      0             -4.0274344      1.0615583    
      2990   1.0016873     -5.5288913      0             -4.0270442      1.0451578    
      3000   1.0055802     -5.534913       0             -4.0272292      1.0239876    
      3010   1.0044517     -5.5333241      0             -4.0273323      1.0435718    
      3020   0.99858729    -5.5250458      0             -4.0278466      1.0997134    
      3030   0.99882494    -5.5251162      0             -4.0275607      1.0987059    
      3040   1.0093819     -5.5406152      0             -4.0272315      1.0347948    
      3050   0.99891854    -5.5255851      0             -4.0278894      1.0842887    
      3060   0.99975237    -5.5264815      0             -4.0275355      1.0880633    
      3070   1.0209759     -5.5589806      0             -4.0282138      0.98756237   
      3080   1.0082074     -5.5402473      0             -4.0286246      1.05894      
      3090   1.0114339     -5.545137       0             -4.0286768      1.0568852    
      3100   1.0008662     -5.5287752      0             -4.0281593      1.1302813    
      3110   1.0168559     -5.5525103      0             -4.0279208      1.0518577    
      3120   1.0198223     -5.5572236      0             -4.0281865      1.0157239    
      3130   1.019308      -5.5562853      0             -4.0280193      0.98709589   
      3140   1.0226995     -5.561239       0             -4.027888       0.96240758   
      3150   1.0176859     -5.5538126      0             -4.0279786      0.97857575   
      3160   0.9950966     -5.5199982      0             -4.0280327      1.0945072    
      3170   0.99968825    -5.5265095      0             -4.0276597      1.0688313    
      3180   1.0077143     -5.5388927      0             -4.0280093      1.0147954    
      3190   1.0012357     -5.5290645      0             -4.0278945      1.0550005    
      3200   1.0202817     -5.5581395      0             -4.0284136      0.95417804   
      3210   1.0314213     -5.5754628      0             -4.029035       0.89253983   
      3220   1.0235573     -5.5635142      0             -4.0288771      0.95222754   
      3230   1.0184962     -5.5560053      0             -4.0289564      1.001626     
      3240   1.003629      -5.5331409      0             -4.0283827      1.0734969    
      3250   1.0033397     -5.5323341      0             -4.0280096      1.0612138    
      3260   0.99469935    -5.5196051      0             -4.0282352      1.1272841    
      3270   1.0009786     -5.5291449      0             -4.0283604      1.0870361    
      3280   1.0154282     -5.5501606      0             -4.0277116      0.99466215   
      3290   1.0066876     -5.5369426      0             -4.0275984      1.0527815    
      3300   0.99390529    -5.5180142      0             -4.0278349      1.1284923    
      3310   1.0141207     -5.5484629      0             -4.0279743      1.0054955    
      3320   1.0131805     -5.5474129      0             -4.0283339      1.0117773    
      3330   1.002175      -5.531133       0             -4.0285547      1.0620428    
      3340   1.0099712     -5.542704       0             -4.0284367      1.015164     
      3350   1.0036936     -5.5337983      0             -4.0289432      1.0661139    
      3360   1.0043201     -5.5338745      0             -4.02808        1.08895      
      3370   1.0055408     -5.5352974      0             -4.0276728      1.097412     
      3380   1.0337212     -5.5776251      0             -4.0277491      0.94773549   
      3390   0.98135088    -5.4989799      0             -4.0276236      1.2194908    
      3400   1.0007152     -5.5286433      0             -4.0282537      1.0930008    
      3410   1.0117583     -5.5446713      0             -4.0277247      1.0298296    
      3420   0.99372463    -5.5174039      0             -4.0274954      1.1379256    
      3430   1.0218229     -5.5596692      0             -4.0276325      0.98064687   
      3440   1.001131      -5.52854        0             -4.0275271      1.0942725    
      3450   1.0106592     -5.5428716      0             -4.0275729      1.0453792    
      3460   1.0095283     -5.5416237      0             -4.0280206      1.0414185    
      3470   1.018423      -5.5541322      0             -4.0271931      0.99430378   
      3480   1.0122297     -5.544957       0             -4.0273035      1.0347622    
      3490   1.0079518     -5.5388275      0             -4.0275881      1.0686794    
      3500   1.0022878     -5.5295534      0             -4.026806       1.09506      
      3510   0.9933836     -5.5164141      0             -4.0270169      1.1424076    
      3520   1.0063986     -5.5370386      0             -4.0281278      1.0496706    
      3530   1.0218438     -5.5600146      0             -4.0279466      0.94196965   
      3540   1.0130869     -5.547422       0             -4.0284834      0.98897496   
      3550   1.0079642     -5.539367       0             -4.0281089      1.0482765    
      3560   1.0123547     -5.5465086      0             -4.0286676      1.0280193    
      3570   1.0145493     -5.5491893      0             -4.0280581      1.0040586    
      3580   0.99195031    -5.514653       0             -4.0274048      1.1475425    
      3590   0.98328818    -5.5021602      0             -4.0278993      1.2327784    
      3600   1.0024244     -5.530747       0             -4.0277948      1.1195246    
      3610   0.99218386    -5.5147464      0             -4.027148       1.1454689    
      3620   1.0068955     -5.5366701      0             -4.0270143      1.0706296    
      3630   1.0118056     -5.5443267      0             -4.0273091      1.0561301    
      3640   0.98359666    -5.5017767      0             -4.0270533      1.1737593    
      3650   1.0285598     -5.5696966      0             -4.0275592      0.87995999   
      3660   1.0031248     -5.5325139      0             -4.0285116      0.99239206   
      3670   1.0044888     -5.5345851      0             -4.0285378      0.9994689    
      3680   0.98892378    -5.5109137      0             -4.0282032      1.1007155    
      3690   1.0122578     -5.5457888      0             -4.0280931      0.98129644   
      3700   1.0205525     -5.5587924      0             -4.0286605      0.91957482   
      3710   0.99399016    -5.5188151      0             -4.0285085      1.0604538    
      3720   1.00762       -5.5388089      0             -4.0280668      1.0180314    
      3730   1.0292421     -5.5707904      0             -4.02763        0.90496528   
      3740   1.0129928     -5.5461581      0             -4.0273605      0.98117586   
      3750   1.0192661     -5.5554955      0             -4.0272922      0.95774137   
      3760   0.98335789    -5.5015537      0             -4.0271883      1.1536821    
      3770   1.0156488     -5.5505603      0             -4.0277805      0.99253723   
      3780   0.99586197    -5.5210144      0             -4.0279014      1.1067876    
      3790   1.0192345     -5.5570879      0             -4.028932       0.97619276   
      3800   1.0027322     -5.5321401      0             -4.0287264      1.0563813    
      3810   1.0165626     -5.5523693      0             -4.0282195      0.98087611   
      3820   1.0162478     -5.5529127      0             -4.0292348      0.9689385    
      3830   1.0005841     -5.5288556      0             -4.0286626      1.0432304    
      3840   1.0296713     -5.5731223      0             -4.0293184      0.90140222   
      3850   1.0117013     -5.545279       0             -4.0284178      1.0278773    
      3860   0.99281931    -5.5168561      0             -4.028305       1.171084     
      3870   1.0047328     -5.5346203      0             -4.0282072      1.1200731    
      3880   1.0067345     -5.5372603      0             -4.0278459      1.0955807    
      3890   1.0108141     -5.542644       0             -4.027113       1.0689586    
      3900   1.0050637     -5.534324       0             -4.0274146      1.0990556    
      3910   1.0005055     -5.5281221      0             -4.0280469      1.1162614    
      3920   0.99681237    -5.5228118      0             -4.0282738      1.1063642    
      3930   1.012097      -5.5456863      0             -4.0282318      1.0173293    
      3940   1.0059377     -5.5361091      0             -4.0278893      1.0489859    
      3950   1.012361      -5.5461177      0             -4.0282674      1.0019848    
      3960   1.0065087     -5.536979       0             -4.0279031      1.0212051    
      3970   1.0338219     -5.5779982      0             -4.0279712      0.87654699   
      3980   1.0173351     -5.5534212      0             -4.0281131      0.97230308   
      3990   1.0002017     -5.5278885      0             -4.0282688      1.0726119    
      4000   1.0135672     -5.5479244      0             -4.0282656      0.99385116   
      4010   1.0075022     -5.5390039      0             -4.0284385      1.0379047    
      4020   1.0177106     -5.5546896      0             -4.0288185      0.99406493   
      4030   1.0035877     -5.5328463      0             -4.02815        1.0598646    
      4040   1.0055613     -5.5364287      0             -4.0287732      1.0622279    
      4050   1.0162973     -5.5519483      0             -4.0281963      1.0115681    
      4060   1.024356      -5.5641824      0             -4.0283478      0.972511     
      4070   0.9909802     -5.5141689      0             -4.0283751      1.1412392    
      4080   1.015738      -5.5511204      0             -4.0282068      0.9920999    
      4090   1.0096576     -5.542033       0             -4.0282359      1.031169     
      4100   1.0285245     -5.5703513      0             -4.0282668      0.93226929   
      4110   1.0147005     -5.5491754      0             -4.0278174      0.99689853   
      4120   1.0147412     -5.5491062      0             -4.0276872      0.98766554   
      4130   1.0338904     -5.5778775      0             -4.0277477      0.90095546   
      4140   1.0066549     -5.5370078      0             -4.0277127      1.0652854    
      4150   1.0000625     -5.5268537      0             -4.0274427      1.1238189    
      4160   1.0143664     -5.5481065      0             -4.0272494      1.0689407    
      4170   0.99703342    -5.5218825      0             -4.0270131      1.1722633    
      4180   0.99980139    -5.5266772      0             -4.0276578      1.1722746    
      4190   0.99243619    -5.5162838      0             -4.0283071      1.1981391    
      4200   1.0124839     -5.5460529      0             -4.0280183      1.069878     
      4210   1.0154299     -5.5494916      0             -4.0270401      1.0493355    
      4220   1.001813      -5.5288278      0             -4.0267923      1.1137349    
      4230   1.0040492     -5.5332608      0             -4.0278725      1.0793938    
      4240   1.0085983     -5.5405278      0             -4.0283189      1.0229762    
      4250   1.0183099     -5.5551038      0             -4.0283343      0.95990907   
      4260   1.0065932     -5.5378544      0             -4.0286519      1.0332619    
      4270   0.99691433    -5.5232375      0             -4.0285466      1.1022896    
      4280   0.99521666    -5.5199716      0             -4.0278261      1.1175209    
      4290   0.99994419    -5.5274702      0             -4.0282366      1.0903592    
      4300   1.0038017     -5.5325166      0             -4.0274994      1.0870045    
      4310   1.0168904     -5.5523607      0             -4.0277193      1.0210704    
      4320   0.99711872    -5.5227784      0             -4.0277811      1.1191764    
      4330   1.0036945     -5.532741       0             -4.0278846      1.0812599    
      4340   1.0243605     -5.5637338      0             -4.0278925      0.97699182   
      4350   1.0054431     -5.5351898      0             -4.0277116      1.0674412    
      4360   1.0173067     -5.5534264      0             -4.0281609      1.0110278    
      4370   0.99111092    -5.5145449      0             -4.0285552      1.1600284    
      4380   1.0239433     -5.5637735      0             -4.0285576      0.96177005   
      4390   1.0159735     -5.5518261      0             -4.0285596      0.98747516   
      4400   0.99244806    -5.5166988      0             -4.0287043      1.1146581    
      4410   1.0039648     -5.5333649      0             -4.0281032      1.0330751    
      4420   1.0032771     -5.5319065      0             -4.0276759      1.0375477    
      4430   0.99949872    -5.5267702      0             -4.0282045      1.0676213    
      4440   1.0153033     -5.551061       0             -4.0287992      0.99079327   
      4450   1.0169708     -5.5533098      0             -4.0285479      1.007643     
      4460   1.0130549     -5.5472036      0             -4.028313       1.0377393    
      4470   1.0243955     -5.5645966      0             -4.0287028      0.96634256   
      4480   1.0298223     -5.572251       0             -4.0282206      0.92905195   
      4490   1.0322345     -5.5756274      0             -4.0279803      0.93757774   
      4500   1.0263934     -5.5670735      0             -4.0281842      0.99275809   
      4510   1.0085606     -5.5396766      0             -4.0275243      1.0937617    
      4520   1.0127049     -5.5461555      0             -4.0277896      1.0485964    
      4530   1.010309      -5.542565       0             -4.0277913      1.0319272    
      4540   1.001871      -5.5299055      0             -4.0277829      1.0733302    
      4550   1.0080424     -5.5390452      0             -4.0276698      1.0538587    
      4560   1.0043444     -5.5331822      0             -4.0273513      1.0837718    
      4570   1.0054065     -5.5350109      0             -4.0275877      1.0689141    
      4580   1.0162991     -5.5511708      0             -4.027416       0.99630161   
      4590   1.0077679     -5.5376522      0             -4.0266884      1.0583799    
      4600   1.0098195     -5.5408432      0             -4.0268034      1.0735633    
      4610   1.0140208     -5.5476369      0             -4.0272979      1.0733459    
      4620   1.0193193     -5.5550938      0             -4.0268109      1.0461103    
      4630   0.99932593    -5.5249499      0             -4.0266433      1.1441494    
      4640   1.0075811     -5.5372016      0             -4.0265179      1.0887169    
      4650   0.99955784    -5.5257885      0             -4.0271342      1.116218     
      4660   1.0061239     -5.5363195      0             -4.0278206      1.0827481    
      4670   0.98916641    -5.5111173      0             -4.028043       1.1759981    
      4680   1.0065079     -5.5375166      0             -4.0284419      1.0581793    
      4690   1.0097174     -5.5425897      0             -4.028703       1.0233974    
      4700   1.0194242     -5.5569891      0             -4.0285488      0.97682373   
      4710   1.0162178     -5.5523968      0             -4.028764       0.99929444   
      4720   1.0051232     -5.5351339      0             -4.0281353      1.0311888    
      4730   1.0281078     -5.5699407      0             -4.028481       0.87967495   
      4740   1.0115892     -5.5443604      0             -4.0276672      0.97354301   
      4750   1.0043097     -5.5333035      0             -4.0275247      1.0234139    
      4760   1.0024087     -5.5299402      0             -4.0270116      1.0505816    
      4770   1.0061188     -5.5352176      0             -4.0267263      1.0489525    
      4780   1.0069568     -5.5372616      0             -4.0275139      1.0480847    
      4790   1.0088621     -5.5408882      0             -4.0282839      1.0553556    
      4800   0.98872057    -5.5106258      0             -4.02822        1.1818595    
      4810   1.0070405     -5.5387483      0             -4.0288751      1.0805741    
      4820   0.9989107     -5.5258904      0             -4.0282064      1.1165642    
      4830   1.0084092     -5.5400663      0             -4.028141       1.068801     
      4840   1.0110305     -5.5436155      0             -4.02776        1.0609822    
      4850   1.0072381     -5.537707       0             -4.0275376      1.0746003    
      4860   1.02239       -5.5605234      0             -4.0276365      0.97691892   
      4870   1.0076365     -5.5391535      0             -4.0283867      1.0528196    
      4880   0.99340431    -5.5169886      0             -4.0275604      1.1436905    
      4890   0.99165338    -5.5136693      0             -4.0268663      1.1575693    
      4900   1.0140214     -5.5475164      0             -4.0271765      1.0216105    
      4910   1.0074274     -5.5378135      0             -4.0273603      1.0590459    
      4920   1.0125273     -5.5457867      0             -4.0276871      1.012295     
      4930   1.0168493     -5.5527047      0             -4.0281249      0.97901472   
      4940   1.0049274     -5.5343458      0             -4.0276409      1.0553359    
      4950   0.99413563    -5.5188759      0             -4.0283512      1.1204935    
      4960   1.0126174     -5.546737       0             -4.0285023      1.0363871    
      4970   0.99136053    -5.5143656      0             -4.0280016      1.1438057    
      4980   1.0145152     -5.5492638      0             -4.0281836      1.0146408    
      4990   1.0067649     -5.5374454      0             -4.0279854      1.0654149    
      5000   0.98649918    -5.5067129      0             -4.0276377      1.1979409    
      5010   0.99309816    -5.516385       0             -4.0274158      1.1704808    
      5020   0.99973556    -5.5263957      0             -4.0274749      1.1343171    
      5030   1.0002588     -5.5275527      0             -4.0278474      1.121968     
      5040   1.0223446     -5.5607438      0             -4.027925       1.0040765    
      5050   0.99321233    -5.5167604      0             -4.02762        1.1607001    
      5060   1.0022072     -5.5302399      0             -4.0276135      1.116231     
      5070   1.0080863     -5.538623       0             -4.0271819      1.1112904    
      5080   1.0124644     -5.5453111      0             -4.0273056      1.0763743    
      5090   1.0125806     -5.5456764      0             -4.0274968      1.0560046    
      5100   1.0238315     -5.5633135      0             -4.0282653      0.98948534   
      5110   1.0230817     -5.5619148      0             -4.0279908      0.9704065    
      5120   1.0115409     -5.544477       0             -4.0278563      1.0010144    
      5130   1.0175632     -5.5538406      0             -4.0281905      0.97203299   
      5140   1.0262333     -5.5663039      0             -4.0276546      0.94083908   
      5150   1.011741      -5.5442216      0             -4.0273008      1.0205592    
      5160   1.0143407     -5.548694       0             -4.0278755      1.0072217    
      5170   0.99606181    -5.520825       0             -4.0274124      1.1172241    
      5180   0.99104091    -5.5132316      0             -4.0273468      1.1516392    
      5190   0.99232553    -5.5149429      0             -4.0271321      1.1397864    
      5200   1.0155688     -5.5499996      0             -4.0273398      1.0041801    
      5210   1.0119303     -5.5444295      0             -4.0272249      1.0169889    
      5220   1.0019945     -5.5303967      0             -4.028089       1.0699135    
      5230   0.99705508    -5.5229014      0             -4.0279995      1.1066855    
      5240   0.98164818    -5.4996425      0             -4.0278405      1.1882651    
      5250   1.0061208     -5.5366092      0             -4.028115       1.0398532    
      5260   1.014224      -5.5483901      0             -4.0277466      0.97055587   
      5270   1.0094517     -5.5408813      0             -4.027393       1.0020497    
      5280   0.99721279    -5.5230496      0             -4.0279113      1.0811294    
      5290   1.0230311     -5.562282       0             -4.0284339      0.94200671   
      5300   1.0002813     -5.5279905      0             -4.0282515      1.0600724    
      5310   1.006066      -5.5365272      0             -4.0281151      1.0335926    
      5320   1.0013669     -5.5290129      0             -4.0276462      1.0516483    
      5330   1.0188549     -5.5556527      0             -4.0280659      0.95920326   
      5340   0.99258627    -5.5169037      0             -4.028702       1.1211748    
      5350   1.0054974     -5.5362182      0             -4.0286587      1.0649778    
      5360   1.0024434     -5.5312673      0             -4.0282866      1.0806348    
      5370   1.0179221     -5.5543831      0             -4.0281949      0.99910289   
      5380   1.0074958     -5.5385507      0             -4.0279948      1.0659792    
      5390   1.0071283     -5.538574       0             -4.0285692      1.086217     
      5400   1.0092274     -5.5415376      0             -4.0283856      1.0774089    
      5410   1.0034421     -5.5326529      0             -4.0281748      1.082496     
      5420   1.0059512     -5.5365057      0             -4.0282656      1.0439514    
      5430   1.0141178     -5.5493072      0             -4.028823       1.0025693    
      5440   1.0101008     -5.5432496      0             -4.0287881      1.0225331    
      5450   1.0102719     -5.5429502      0             -4.0282321      1.0457023    
      5460   1.0090329     -5.5406949      0             -4.0278345      1.0840452    
      5470   1.0194911     -5.5571724      0             -4.0286317      1.0459172    
      5480   0.98919314    -5.5113788      0             -4.0282645      1.2145051    
      5490   1.0007031     -5.5285517      0             -4.0281803      1.1356383    
      5500   1.007254      -5.5388203      0             -4.028627       1.086261     
      5510   1.0205127     -5.5581314      0             -4.0280592      0.98927786   
      5520   0.99277227    -5.516796       0             -4.0283154      1.1161041    
      5530   1.0101875     -5.5431034      0             -4.0285118      1.0215168    
      5540   1.001418      -5.5289652      0             -4.0275219      1.0843606    
      5550   0.99943865    -5.5267114      0             -4.0282358      1.0985292    
      5560   0.99973824    -5.5269203      0             -4.0279955      1.1000336    
      5570   1.0103167     -5.5433143      0             -4.028529       1.0505196    
      5580   1.0103106     -5.5428644      0             -4.0280883      1.0573992    
      5590   1.0153892     -5.5508249      0             -4.0284344      1.0309643    
      5600   1.0127174     -5.5466886      0             -4.028304       1.0476057    
      5610   1.0287172     -5.5695292      0             -4.0271559      0.95799261   
      5620   0.98723464    -5.5070701      0             -4.0268921      1.2022425    
      5630   0.99330374    -5.5166309      0             -4.0273535      1.1686574    
      5640   0.99779571    -5.5235815      0             -4.0275692      1.1269713    
      5650   0.99926959    -5.5252878      0             -4.0270657      1.115272     
      5660   0.99848976    -5.5242311      0             -4.0271781      1.0982112    
      5670   1.0054424     -5.5348867      0             -4.0274095      1.0276646    
      5680   1.0306318     -5.5727048      0             -4.0274607      0.89398466   
      5690   1.0044972     -5.5333333      0             -4.0272733      1.0852987    
      5700   0.99702808    -5.5226251      0             -4.0277637      1.1636232    
      5710   1.0128035     -5.5463836      0             -4.0278699      1.0641099    
      5720   0.98984605    -5.5126191      0             -4.0285258      1.1828606    
      5730   1.0039517     -5.5325309      0             -4.0272888      1.1225659    
      5740   1.0170421     -5.5522309      0             -4.0273622      1.0454539    
      5750   1.0141877     -5.5484077      0             -4.0278186      1.0346801    
      5760   1.019356      -5.5569404      0             -4.0286024      1.0075374    
      5770   1.0031348     -5.532024       0             -4.0280066      1.117201     
      5780   1.0047273     -5.5349891      0             -4.0285841      1.0990739    
      5790   1.0165984     -5.5522729      0             -4.0280694      1.0355473    
      5800   1.0079017     -5.5390629      0             -4.0278985      1.0697163    
      5810   1.0124598     -5.5455949      0             -4.0275964      1.0438768    
      5820   1.0046609     -5.5342026      0             -4.0278972      1.0756651    
      5830   1.0078759     -5.5393238      0             -4.0281981      1.0626839    
      5840   1.0017494     -5.5294413      0             -4.0275012      1.0931845    
      5850   1.0148064     -5.5494663      0             -4.0279496      1.0279742    
      5860   1.0214645     -5.5594538      0             -4.0279544      0.98331183   
      5870   1.0234709     -5.5624972      0             -4.0279896      0.96447936   
      5880   1.0059502     -5.5359488      0             -4.0277104      1.0834579    
      5890   0.9969761     -5.5226262      0             -4.0278427      1.1608082    
      5900   1.0044349     -5.5334533      0             -4.0274867      1.1151687    
      5910   1.0235266     -5.5627069      0             -4.0281159      0.98822358   
      5920   0.997882      -5.5241309      0             -4.0279892      1.1403736    
      5930   0.98942432    -5.5113785      0             -4.0279176      1.2003473    
      5940   1.0082381     -5.5393904      0             -4.0277216      1.0920935    
      5950   1.0154059     -5.5492405      0             -4.0268249      1.0490879    
      5960   1.0048292     -5.5333364      0             -4.0267787      1.0918231    
      5970   0.98212316    -5.4991727      0             -4.0266585      1.2105749    
      5980   1.0013619     -5.5285802      0             -4.027221       1.1007924    
      5990   1.0103298     -5.5423564      0             -4.0275515      1.0577341    
      6000   1.0070264     -5.5370588      0             -4.0272067      1.0877929    
      6010   0.98948024    -5.5109235      0             -4.0273787      1.1851721    
      6020   1.0114751     -5.5444477      0             -4.0279256      1.0516937    
      6030   0.99590641    -5.5209295      0             -4.0277498      1.1278852    
      6040   0.99305663    -5.5164951      0             -4.0275882      1.1376204    
      6050   1.0010647     -5.5290687      0             -4.0281552      1.0890755    
      6060   1.0058348     -5.5360226      0             -4.0279571      1.0746018    
      6070   1.013533      -5.5472136      0             -4.027606       1.0488632    
      6080   0.99959038    -5.5255385      0             -4.0268354      1.1373903    
      6090   1.0185368     -5.554547       0             -4.0274372      1.0225755    
      6100   1.0077267     -5.5384578      0             -4.0275557      1.0609522    
      6110   1.0016696     -5.5295756      0             -4.0277551      1.0937559    
      6120   1.0107061     -5.5432314      0             -4.0278622      1.0484303    
      6130   0.99799543    -5.5243862      0             -4.0280745      1.1060128    
      6140   1.0083252     -5.5393756      0             -4.0275763      1.059894     
      6150   0.97744899    -5.4931338      0             -4.0276276      1.2291158    
      6160   1.003656      -5.5328973      0             -4.0280985      1.0748126    
      6170   1.0113967     -5.544519       0             -4.0281144      1.038067     
      6180   1.0021061     -5.5304311      0             -4.027956       1.1155559    
      6190   1.0116827     -5.5445775      0             -4.0277443      1.0823015    
      6200   1.0124497     -5.545023       0             -4.0270397      1.0759198    
      6210   1.0146355     -5.5491143      0             -4.0278538      1.0713363    
      6220   1.0036194     -5.5331123      0             -4.0283683      1.1433333    
      6230   1.0011686     -5.5291274      0             -4.0280581      1.1542166    
      6240   1.0153314     -5.5496832      0             -4.0273794      1.0742205    
      6250   1.0132849     -5.5465672      0             -4.0273317      1.0703049    
      6260   1.017111      -5.5528918      0             -4.0279197      1.0179893    
      6270   1.0083499     -5.5397335      0             -4.027897       1.0578681    
      6280   1.017709      -5.5535636      0             -4.0276951      1.0173591    
      6290   0.99960315    -5.5273334      0             -4.0286112      1.1170294    
      6300   1.0061942     -5.5367343      0             -4.0281299      1.0913918    
      6310   0.98127418    -5.4991051      0             -4.0278637      1.2418955    
      6320   0.98673815    -5.5073863      0             -4.0279528      1.2416381    
      6330   0.99688084    -5.5224548      0             -4.0278141      1.1525966    
      6340   1.0125995     -5.5462341      0             -4.0280261      1.0454691    
      6350   1.00014       -5.5279329      0             -4.0284058      1.1251637    
      6360   1.0178824     -5.5544753      0             -4.0283467      1.0304381    
      6370   1.0141394     -5.5483325      0             -4.0278158      1.0464077    
      6380   1.0216088     -5.5596073      0             -4.0278915      1.0128206    
      6390   0.99480885    -5.5192011      0             -4.0276671      1.1686609    
      6400   1.000709      -5.528139       0             -4.0277588      1.1276552    
      6410   1.0297376     -5.5718942      0             -4.0279908      0.93169571   
      6420   1.0061077     -5.5370132      0             -4.0285386      1.0547181    
      6430   0.99927217    -5.5265639      0             -4.0283378      1.1017403    
      6440   1.0126774     -5.5465675      0             -4.0282428      1.0243247    
      6450   1.0193478     -5.5566785      0             -4.0283528      0.98269065   
      6460   1.0026731     -5.5317275      0             -4.0284025      1.0737654    
      6470   0.99325494    -5.5177432      0             -4.0285389      1.106376     
      6480   1.0171504     -5.5529116      0             -4.0278805      0.95948474   
      6490   1.0070411     -5.5375287      0             -4.0276547      1.0290579    
      6500   1.0021854     -5.5303413      0             -4.0277474      1.0861634    
      6510   1.0118028     -5.5449609      0             -4.0279476      1.0416328    
      6520   1.0033823     -5.5324522      0             -4.0280637      1.0984698    
      6530   1.0133011     -5.5477778      0             -4.028518       1.0643756    
      6540   1.0167183     -5.5524248      0             -4.0280415      1.0460153    
      6550   1.0001568     -5.5273465      0             -4.0277942      1.1381482    
      6560   1.0003219     -5.528451       0             -4.0286512      1.1648393    
      6570   0.97097612    -5.4830293      0             -4.027228       1.3212687    
      6580   1.0123051     -5.5455813      0             -4.0278148      1.0798085    
      6590   0.99406221    -5.5188449      0             -4.0284303      1.1419637    
      6600   1.0140291     -5.5484454      0             -4.0280941      1.0371525    
      6610   1.0101445     -5.5417755      0             -4.0272484      1.0851169    
      6620   0.98256069    -5.500244       0             -4.0270739      1.2420502    
      6630   0.98605375    -5.5052697      0             -4.0268623      1.2457978    
      6640   1.0042359     -5.532962       0             -4.0272937      1.1488467    
      6650   1.0006093     -5.5279645      0             -4.0277337      1.1529486    
      6660   1.0117195     -5.5450763      0             -4.0281879      1.0683096    
      6670   0.98879897    -5.5108956      0             -4.0283723      1.1635045    
      6680   1.0132635     -5.5470507      0             -4.0278472      1.0133276    
      6690   1.0159133     -5.5510391      0             -4.0278628      0.98683779   
      6700   1.0170376     -5.5527109      0             -4.0278489      0.97135337   
      6710   1.0142862     -5.5484021      0             -4.0276653      0.99408647   
      6720   1.0246204     -5.563992       0             -4.027761       0.96773972   
      6730   1.0017809     -5.5294752      0             -4.0274878      1.1160215    
      6740   1.0052322     -5.5343557      0             -4.0271937      1.0910929    
      6750   0.98773038    -5.5082317      0             -4.0273105      1.151932     
      6760   1.0050619     -5.5348985      0             -4.0279918      1.0506458    
      6770   0.99224974    -5.5151269      0             -4.0274297      1.1248472    
      6780   1.0080222     -5.5388964      0             -4.0275514      1.0633516    
      6790   1.0151682     -5.5500488      0             -4.0279896      1.0277961    
      6800   1.0122855     -5.5456121      0             -4.027875       1.0122896    
      6810   1.0162164     -5.5524461      0             -4.0288154      0.96301738   
      6820   1.0043988     -5.5336192      0             -4.0277068      1.0414902    
      6830   1.0017848     -5.5296565      0             -4.0276632      1.0635821    
      6840   0.99970612    -5.5260436      0             -4.027167       1.0648295    
      6850   1.0217892     -5.5589264      0             -4.0269402      0.95505075   
      6860   1.0058037     -5.5347756      0             -4.0267568      1.056996     
      6870   1.0036956     -5.5321704      0             -4.0273123      1.0847247    
      6880   1.0040521     -5.5328211      0             -4.0274285      1.0921381    
      6890   0.99863478    -5.5251657      0             -4.0278953      1.1111511    
      6900   1.0163511     -5.5513182      0             -4.0274855      0.99921474   
      6910   1.0154573     -5.5499053      0             -4.0274126      0.99213939   
      6920   1.0059757     -5.5357541      0             -4.0274774      1.064202     
      6930   1.0103499     -5.5427845      0             -4.0279494      1.0715973    
      6940   0.98584301    -5.5061248      0             -4.0280334      1.1997732    
      6950   1.0153571     -5.5504539      0             -4.0281115      1.0333867    
      6960   0.99885265    -5.5259011      0             -4.0283041      1.1301725    
      6970   1.0082946     -5.5392661      0             -4.0275126      1.082678     
      6980   0.99730872    -5.5225745      0             -4.0272923      1.1179516    
      6990   1.0073315     -5.5381226      0             -4.0278131      1.055069     
      7000   1.007214      -5.5378744      0             -4.027741       1.0559917    
      7010   1.0098465     -5.5414667      0             -4.0273864      1.0580968    
      7020   0.99861943    -5.5247046      0             -4.0274573      1.1403636    
      7030   1.0054464     -5.5348811      0             -4.027398       1.1000804    
      7040   1.0011862     -5.5281158      0             -4.02702        1.1265373    
      7050   1.0109211     -5.5425091      0             -4.0268176      1.0781844    
      7060   1.0241321     -5.5624623      0             -4.0269634      0.98739842   
      7070   1.0078541     -5.5381047      0             -4.0270116      1.0473471    
      7080   1.0212265     -5.558518       0             -4.0273755      0.95805852   
      7090   1.003273      -5.5321737      0             -4.0279492      1.0647595    
      7100   0.99686218    -5.5222911      0             -4.0276784      1.1222436    
      7110   1.0108505     -5.5426838      0             -4.0270981      1.0496912    
      7120   1.0168372     -5.552044       0             -4.0274825      1.0292247    
      7130   0.98935968    -5.5110683      0             -4.0277043      1.194651     
      7140   0.99733676    -5.5235663      0             -4.0282421      1.1367124    
      7150   1.0244701     -5.5645027      0             -4.028497       0.95142374   
      7160   1.0283486     -5.5705981      0             -4.0287773      0.9057227    
      7170   1.0189289     -5.5565343      0             -4.0288366      0.9649582    
      7180   1.0138725     -5.5487891      0             -4.0286725      0.99361224   
      7190   0.99892816    -5.5262914      0             -4.0285812      1.0404781    
      7200   1.0260644     -5.5667636      0             -4.0283676      0.86119491   
      7210   1.0322952     -5.5765936      0             -4.0288556      0.83388481   
      7220   1.0160916     -5.5523719      0             -4.0289283      0.94583714   
      7230   1.0113531     -5.5444679      0             -4.0281287      1.0033003    
      7240   1.0091277     -5.5412028      0             -4.0282003      1.0439798    
      7250   1.0137662     -5.5479256      0             -4.0279685      1.0223       
      7260   0.99780479    -5.5237225      0             -4.0276965      1.1078112    
      7270   1.002528      -5.5306755      0             -4.0275679      1.1014585    
      7280   1.0189997     -5.555562       0             -4.0277581      1.0257946    
      7290   1.0168663     -5.5519449      0             -4.0273397      1.035636     
      7300   0.99316015    -5.5157878      0             -4.0267256      1.1690516    
      7310   0.99881133    -5.5246123      0             -4.0270773      1.1322311    
      7320   1.0074881     -5.5377236      0             -4.0271793      1.0763038    
      7330   0.98501623    -5.5042526      0             -4.0274008      1.1951607    
      7340   1.003922      -5.5328627      0             -4.0276651      1.0720984    
      7350   1.0050885     -5.534812       0             -4.0278654      1.0792047    
      7360   0.9887132     -5.5104785      0             -4.0280837      1.1814803    
      7370   1.0101183     -5.5425409      0             -4.0280531      1.0615704    
      7380   0.99875545    -5.5250829      0             -4.0276316      1.0999908    
      7390   1.0129501     -5.5468408      0             -4.0281072      1.0011494    
      7400   1.0104649     -5.5427541      0             -4.0277466      1.0031467    
      7410   1.0034589     -5.532111       0             -4.0276077      1.0618894    
      7420   1.0092648     -5.541297       0             -4.0280888      1.0519398    
      7430   1.0121566     -5.5453281      0             -4.0277843      1.0291745    
      7440   1.0263884     -5.5665873      0             -4.0277054      0.9438464    
      7450   1.0117902     -5.5451399      0             -4.0281455      1.0478676    
      7460   1.0048296     -5.5351617      0             -4.0286034      1.1087582    
      7470   1.0006234     -5.5289075      0             -4.0286556      1.1263194    
      7480   0.98732272    -5.5083458      0             -4.0280359      1.1735812    
      7490   0.99838951    -5.5250376      0             -4.028135       1.1065573    
      7500   0.99818656    -5.5247571      0             -4.0281587      1.1025423    
      7510   1.0119421     -5.5450123      0             -4.0277899      1.0102259    
      7520   0.99148792    -5.514389       0             -4.027834       1.1081569    
      7530   0.99097976    -5.5135354      0             -4.0277423      1.1085434    
      7540   1.0164832     -5.5520747      0             -4.0280439      0.95465108   
      7550   1.018651      -5.5553403      0             -4.0280592      0.94803405   
      7560   1.0110246     -5.5436232      0             -4.0277766      1.014938     
      7570   1.0199898     -5.5570021      0             -4.0277137      0.99872408   
      7580   1.0204686     -5.5574687      0             -4.0274625      1.0157641    
      7590   1.0185511     -5.5544776      0             -4.0273463      1.0411701    
      7600   0.99815187    -5.523302       0             -4.0267557      1.1406675    
      7610   1.0101703     -5.5416796      0             -4.0271139      1.0552248    
      7620   1.0047924     -5.533716       0             -4.0272135      1.0671806    
      7630   1.0037687     -5.5331613      0             -4.0281936      1.045585     
      7640   1.0147885     -5.5496474      0             -4.0281575      0.96577014   
      7650   1.0218259     -5.5605064      0             -4.0284652      0.9356341    
      7660   1.0086237     -5.5410882      0             -4.0288412      1.0361003    
      7670   0.9973288     -5.5244636      0             -4.0291513      1.1209458    
      7680   1.0308746     -5.574532       0             -4.028924       0.93083957   
      7690   1.0264155     -5.5674009      0             -4.0284784      0.92639531   
      7700   1.025416      -5.5658441      0             -4.0284202      0.93985982   
      7710   1.0111843     -5.5441038      0             -4.0280177      1.0394862    
      7720   1.0150204     -5.5498833      0             -4.0280457      1.0251661    
      7730   1.0152871     -5.5506501      0             -4.0284127      1.0254043    
      7740   1.0117001     -5.5452012      0             -4.0283419      1.0410377    
      7750   1.0090637     -5.5411384      0             -4.0282319      1.0448845    
      7760   0.99814179    -5.5251486      0             -4.0286174      1.1071928    
      7770   1.0083376     -5.5401056      0             -4.0282876      1.0568277    
      7780   1.0049537     -5.534257       0             -4.0275126      1.0540436    
      7790   1.0221944     -5.5602689      0             -4.0276751      0.93695496   
      7800   1.0179799     -5.5540751      0             -4.0278004      0.96568776   
      7810   1.0096143     -5.5417396      0             -4.0280076      1.0196063    
      7820   1.0054038     -5.5353388      0             -4.0279196      1.0224895    
      7830   1.0331795     -5.5781611      0             -4.0290972      0.86488385   
      7840   1.0242535     -5.5641262      0             -4.0284453      0.93700692   
      7850   1.026878      -5.5684447      0             -4.0288289      0.92571586   
      7860   1.0174026     -5.5533896      0             -4.0279803      0.96833434   
      7870   1.0048523     -5.534063       0             -4.0274706      1.055519     
      7880   1.0107841     -5.5428252      0             -4.0273391      1.0221472    
      7890   1.0083188     -5.5399291      0             -4.0281394      1.0276444    
      7900   1.0129661     -5.5469294      0             -4.0281719      1.0081878    
      7910   1.0173465     -5.5533095      0             -4.0279843      0.95398848   
      7920   1.0216702     -5.5599351      0             -4.0281274      0.90663008   
      7930   0.9991135     -5.5257879      0             -4.0277998      1.0282574    
      7940   1.0134821     -5.547834       0             -4.0283028      0.95192231   
      7950   1.0120532     -5.5454486      0             -4.0280598      0.98040108   
      7960   1.0020687     -5.5299953      0             -4.0275764      1.0594727    
      7970   1.0181115     -5.5542927      0             -4.0278205      0.9879646    
      7980   1.0269893     -5.5675281      0             -4.0277453      0.94485753   
      7990   1.0160841     -5.5514522      0             -4.0280197      1.0113122    
      8000   1.0140336     -5.5479519      0             -4.0275938      1.0362088    
      8010   0.99904825    -5.5254665      0             -4.0275763      1.1187502    
      8020   1.0066015     -5.5370885      0             -4.0278735      1.0715889    
      8030   1.0045507     -5.5335759      0             -4.0274356      1.0720413    
      8040   1.0086032     -5.5397601      0             -4.027544       1.0352671    
      8050   1.0099619     -5.5423383      0             -4.0280851      1.0217062    
      8060   1.0236967     -5.5636285      0             -4.0287823      0.93853206   
      8070   1.0075243     -5.5391367      0             -4.0285381      1.0346765    
      8080   1.0119571     -5.5457308      0             -4.028486       1.0053724    
      8090   0.98600592    -5.5066638      0             -4.0283281      1.1364518    
      8100   1.0143181     -5.5487655      0             -4.0279809      0.99133919   
      8110   1.0259731     -5.5666051      0             -4.028346       0.93492187   
      8120   0.99756336    -5.5238392      0             -4.0281752      1.0994225    
      8130   1.0174462     -5.5541882      0             -4.0287135      1.0019349    
      8140   1.0095061     -5.5422819      0             -4.028712       1.0337667    
      8150   0.99942736    -5.5266779      0             -4.0282192      1.0780171    
      8160   1.0027212     -5.5316282      0             -4.028231       1.0687355    
      8170   1.006144      -5.536836       0             -4.028307       1.0711314    
      8180   1.0170493     -5.5524811      0             -4.0276015      1.0139154    
      8190   1.0107683     -5.5425161      0             -4.0270537      1.0537936    
      8200   1.0195288     -5.5559557      0             -4.0273586      1.0053529    
      8210   1.0182083     -5.5537528      0             -4.0271356      0.97467254   
      8220   1.0068154     -5.536697       0             -4.0271614      1.0238662    
      8230   1.0095907     -5.5407179      0             -4.0270212      1.0054128    
      8240   1.0114869     -5.5440643      0             -4.0275246      0.99533984   
      8250   0.98889077    -5.5101051      0             -4.0274441      1.1213529    
      8260   1.018473      -5.5548964      0             -4.0278823      0.96638464   
      8270   1.0009241     -5.5282079      0             -4.027505       1.0759248    
      8280   0.99923042    -5.5251958      0             -4.0270324      1.0869641    
      8290   1.0118407     -5.544741       0             -4.0276708      1.004176     
      8300   0.99901173    -5.525995       0             -4.0281595      1.0831535    
      8310   0.99006026    -5.512637       0             -4.0282226      1.1457947    
      8320   0.99114094    -5.514273       0             -4.0282382      1.1419714    
      8330   0.99389392    -5.5190715      0             -4.0289092      1.1333047    
      8340   1.0067981     -5.5380401      0             -4.0285303      1.0484711    
      8350   1.0079914     -5.5400985      0             -4.0287997      1.0421248    
      8360   1.002491      -5.5319164      0             -4.0288643      1.0775917    
      8370   1.0056041     -5.5372403      0             -4.0295208      1.0475809    
      8380   1.0071485     -5.5391682      0             -4.0291331      1.0386386    
      8390   1.0070325     -5.5384085      0             -4.0285474      1.0495492    
      8400   1.0083947     -5.5403449      0             -4.0284413      1.0284867    
      8410   1.0113735     -5.5436132      0             -4.0272435      1.0023042    
      8420   1.0309429     -5.5737804      0             -4.02807        0.89630694   
      8430   1.0039969     -5.533617       0             -4.0283071      1.0447186    
      8440   0.99742181    -5.5244537      0             -4.029002       1.0778804    
      8450   1.0022975     -5.5311931      0             -4.0284312      1.0418522    
      8460   1.0219886     -5.5604534      0             -4.0281682      0.94354915   
      8470   1.0135318     -5.5481628      0             -4.028557       0.9860916    
      8480   1.0200445     -5.5577889      0             -4.0284186      0.95504379   
      8490   1.0065578     -5.5379929      0             -4.0288434      1.0231535    
      8500   1.0122324     -5.545909       0             -4.0282514      1.0197657    
      8510   0.99981426    -5.527551       0             -4.0285122      1.1273744    
      8520   0.98966619    -5.5123387      0             -4.0285151      1.1893774    
      8530   1.0095598     -5.5419518      0             -4.0283014      1.0767005    
      8540   0.99768062    -5.5237041      0             -4.0278644      1.1271163    
      8550   1.0173513     -5.5531792      0             -4.0278468      0.99315416   
      8560   1.011001      -5.5436627      0             -4.0278515      1.0207561    
      8570   1.0032128     -5.5321336      0             -4.0279994      1.0825604    
      8580   1.0103466     -5.5421685      0             -4.0273385      1.0768663    
      8590   0.99921098    -5.5257044      0             -4.0275701      1.1689651    
      8600   0.99960291    -5.5257527      0             -4.0270308      1.1895143    
      8610   1.0224019     -5.5593656      0             -4.0264608      1.0509897    
      8620   1.0081947     -5.538273       0             -4.0266693      1.108522     
      8630   0.9969774     -5.521352       0             -4.0265666      1.1924673    
      8640   0.99096375    -5.5130593      0             -4.0272903      1.2272906    
      8650   1.0109492     -5.5434977      0             -4.0277642      1.0920046    
      8660   1.0174533     -5.5535852      0             -4.0280998      1.0397797    
      8670   0.99998559    -5.5273456      0             -4.0280499      1.1442349    
      8680   1.0125322     -5.5459215      0             -4.0278146      1.0868266    
      8690   0.99932175    -5.5264912      0             -4.0281909      1.14927      
      8700   0.9904174     -5.5131566      0             -4.0282067      1.1764456    
      8710   1.0030425     -5.531951       0             -4.0280722      1.0819702    
[...]
      9850   1.0242436     -5.5632118      0             -4.0275457      0.9562835    
      9860   1.0262965     -5.5663373      0             -4.0275932      0.96484812   
      9870   1.0099015     -5.5412436      0             -4.0270808      1.0870012    
      9880   1.0145796     -5.5481592      0             -4.0269824      1.0465005    
      9890   1.0110898     -5.5427727      0             -4.0268283      1.0576542    
      9900   1.0004933     -5.5273454      0             -4.0272886      1.0935698    
      9910   1.0234006     -5.5615347      0             -4.0271324      0.97157435   
      9920   0.99616044    -5.519883       0             -4.0263224      1.1300179    
      9930   0.99520596    -5.5189007      0             -4.0267713      1.1443579    
      9940   0.99977024    -5.5260413      0             -4.0270685      1.0967086    
      9950   1.0136886     -5.5466016      0             -4.0267608      1.010047     
      9960   0.99244896    -5.5153205      0             -4.0273246      1.13204      
      9970   1.0131236     -5.546605       0             -4.0276114      1.0445834    
      9980   1.0003697     -5.5273826      0             -4.027511       1.1093489    
      9990   1.0127779     -5.5466447      0             -4.0281693      1.0400859    
     10000   1.0134947     -5.54727        0             -4.0277199      1.0418282    
     10010   1.0040766     -5.5331478      0             -4.0277185      1.0824949    
     10020   1.0147516     -5.5489793      0             -4.0275447      1.0117705    
     10030   0.99875401    -5.5250115      0             -4.0275623      1.0991672    
     10040   1.0085479     -5.540295       0             -4.0281617      1.0571479    
     10050   0.99953802    -5.5267517      0             -4.0281271      1.1166435    
     10060   0.99324865    -5.517198       0             -4.0280031      1.1570405    
     10070   1.0067415     -5.5375953      0             -4.0281704      1.0741692    
     10080   0.98193537    -5.4999223      0             -4.0276896      1.1950527    
     10090   0.99016509    -5.51256        0             -4.0279884      1.1555237    
     10100   1.0009733     -5.5279759      0             -4.0271994      1.0806332    
     10110   1.0104154     -5.5421367      0             -4.0272035      1.0104101    
     10120   1.008274      -5.5388356      0             -4.027113       1.0273455    
     10130   1.0085319     -5.5389229      0             -4.0268137      1.0413966    
     10140   1.0107758     -5.5430308      0             -4.0275571      1.0418367    
     10150   1.0158321     -5.550689       0             -4.0276344      1.0262225    
     10160   1.0051054     -5.5341289      0             -4.027157       1.0790566    
     10170   0.99741002    -5.5220972      0             -4.0266632      1.1028499    
     10180   0.99614785    -5.5201875      0             -4.0266459      1.096708     
     10190   1.0071471     -5.5368302      0             -4.0267972      1.0564641    
     10200   1.0084901     -5.5385926      0             -4.026546       1.0811898    
     10210   0.97916868    -5.4945177      0             -4.0264332      1.2306212    
     10220   0.99965831    -5.5258152      0             -4.0270102      1.0979175    
     10230   1.0179194     -5.553278       0             -4.0270938      0.97288955   
     10240   1.011873      -5.5440439      0             -4.0269252      0.9940112    
     10250   1.0107185     -5.5431949      0             -4.0278071      1.0425501    
     10260   0.9935582     -5.5171795      0             -4.0275206      1.1675586    
     10270   1.0094324     -5.5412709      0             -4.0278114      1.0662454    
     10280   1.0137227     -5.5480373      0             -4.0281454      1.0313787    
     10290   1.0068657     -5.5379144      0             -4.0283033      1.072253     
     10300   1.0049382     -5.5353191      0             -4.0285979      1.0737404    
     10310   1.0080906     -5.5397882      0             -4.0283406      1.0806786    
     10320   1.0052491     -5.5360913      0             -4.0289039      1.0992947    
     10330   1.0143465     -5.5494461      0             -4.0286189      1.0290959    
     10340   1.0112877     -5.5445296      0             -4.0282885      1.0468975    
     10350   1.0073447     -5.5384053      0             -4.0280761      1.0886063    
     10360   1.0040996     -5.5334201      0             -4.0279562      1.1333499    
     10370   1.0150447     -5.5505903      0             -4.0287163      1.0807909    
     10380   1.0145538     -5.5498456      0             -4.0287075      1.058137     
     10390   1.0136239     -5.5481174      0             -4.0283736      1.0513775    
     10400   1.0105505     -5.5430588      0             -4.027923       1.0676038    
     10410   1.0204701     -5.5573911      0             -4.0273827      1.0199293    
     10420   0.99763052    -5.523678       0             -4.0279134      1.1499535    
     10430   1.00778       -5.5385948      0             -4.0276129      1.0835015    
     10440   1.0213656     -5.5588764      0             -4.0275254      0.99287714   
     10450   1.0358242     -5.5803643      0             -4.0273352      0.90146112   
     10460   1.0124995     -5.5456039      0             -4.027546       1.0482996    
     10470   0.99204126    -5.5150453      0             -4.0276607      1.1744241    
     10480   1.0102468     -5.5423391      0             -4.0276586      1.0716559    
     10490   1.0068732     -5.5368942      0             -4.0272719      1.0736641    
     10500   1.0026185     -5.5307758      0             -4.0275326      1.0788948    
     10510   1.0288527     -5.5704472      0             -4.0278706      0.9241955    
     10520   0.99818019    -5.5239808      0             -4.027392       1.1003151    
     10530   1.0088011     -5.5400392      0             -4.0275264      1.0581225    
     10540   1.0073538     -5.537709       0             -4.027366       1.0674533    
     10550   1.0046563     -5.5347096      0             -4.0284111      1.0730445    
     10560   1.0199817     -5.5577717      0             -4.0284956      1.007502     
     10570   1.0181427     -5.5545079      0             -4.027989       1.0163153    
     10580   1.0394489     -5.5861273      0             -4.0276635      0.88844925   
     10590   1.0116432     -5.5443076      0             -4.0275335      1.0387877    
     10600   1.0108133     -5.5428377      0             -4.027308       1.0502195    
     10610   1.0276865     -5.5684111      0             -4.027583       0.95892149   
     10620   1.0160802     -5.5511434      0             -4.0277169      1.0472721    
     10630   1.0092058     -5.5403102      0             -4.0271905      1.1047647    
     10640   1.0126381     -5.545403       0             -4.0271373      1.0597847    
     10650   1.0169257     -5.5522953      0             -4.027601       1.0129697    
     10660   1.013071      -5.5470932      0             -4.0281784      1.0167534    
     10670   1.0161476     -5.5515639      0             -4.0280363      0.99716441   
     10680   1.0108334     -5.5437696      0             -4.0282096      1.047223     
     10690   1.0055655     -5.5350359      0             -4.0273742      1.1102233    
     10700   0.99936234    -5.5254872      0             -4.027126       1.1547433    
     10710   0.99372517    -5.5173967      0             -4.0274874      1.1917926    
     10720   1.0023858     -5.5303474      0             -4.0274531      1.1747666    
     10730   0.99227758    -5.5151071      0             -4.0273682      1.2327754    
     10740   1.0012716     -5.5286551      0             -4.0274313      1.1456762    
     10750   1.0055956     -5.5355207      0             -4.0278139      1.0830648    
     10760   1.0176643     -5.5534343      0             -4.0276326      0.99495753   
     10770   1.0049903     -5.5349804      0             -4.0281812      1.055527     
     10780   1.0068639     -5.5376566      0             -4.0280482      1.037431     
     10790   1.0082952     -5.5396883      0             -4.027934       1.0361796    
     10800   1.0118413     -5.5449817      0             -4.0279106      1.0274572    
     10810   1.0007487     -5.528841       0             -4.0284012      1.1007177    
     10820   1.0040425     -5.5337646      0             -4.0283863      1.0917196    
     10830   1.0158549     -5.5519737      0             -4.028885       1.0044288    
     10840   1.0121654     -5.5461929      0             -4.0286359      1.0191691    
     10850   0.99888149    -5.5257574      0             -4.0281171      1.1050865    
     10860   1.0207984     -5.5587134      0             -4.0282128      0.99037975   
     10870   1.0294799     -5.5713453      0             -4.0278283      0.93523743   
     10880   1.0218044     -5.5595891      0             -4.0275801      0.97361988   
     10890   0.99598003    -5.521103       0             -4.0278129      1.1179433    
     10900   1.0092564     -5.5414279      0             -4.0282324      1.0542433    
     10910   0.9969249     -5.5227185      0             -4.0280118      1.1309445    
     10920   1.0099806     -5.5422875      0             -4.0280062      1.0452359    
     10930   1.0118887     -5.5453511      0             -4.028209       1.0242548    
     10940   0.99804836    -5.5242456      0             -4.0278545      1.1126177    
     10950   1.0221858     -5.5601799      0             -4.0275991      0.97544481   
     10960   1.0119478     -5.5449662      0             -4.0277354      1.0170213    
     10970   0.99620819    -5.5213469      0             -4.0277148      1.1059417    
     10980   1.0002844     -5.5273123      0             -4.0275687      1.0726097    
     10990   1.0131704     -5.5469158      0             -4.027852       0.99524871   
     11000   1.0085455     -5.5402071      0             -4.0280774      1.0378102    
     11010   1.0020783     -5.530224       0             -4.0277908      1.0803549    
     11020   1.0076556     -5.538976       0             -4.0281805      1.0383317    
     11030   1.0220904     -5.5605106      0             -4.0280728      0.94576857   
     11040   1.0107578     -5.5437598      0             -4.0283133      1.0151844    
     11050   0.99495472    -5.519898       0             -4.0281452      1.1059648    
     11060   1.0043216     -5.5342164      0             -4.0284197      1.0435832    
     11070   1.011961      -5.5449018      0             -4.0276512      1.0008282    
     11080   0.99895224    -5.5254136      0             -4.0276673      1.0788562    
     11090   1.0121783     -5.5448664      0             -4.02729        1.0352344    
     11100   1.0022104     -5.5301375      0             -4.0275061      1.0905083    
     11110   1.0028217     -5.5306488      0             -4.0271009      1.0718825    
     11120   1.0124281     -5.5449529      0             -4.027002       1.0196101    
     11130   0.99943606    -5.52568        0             -4.0272083      1.081041     
     11140   1.0067175     -5.5375008      0             -4.0281119      1.0401131    
     11150   1.0147771     -5.549377       0             -4.0279042      1.0097494    
     11160   1.0153593     -5.5498323      0             -4.0274865      1.0252192    
     11170   1.0008901     -5.5279844      0             -4.0273326      1.1041132    
     11180   0.99947924    -5.5256627      0             -4.0271263      1.0840517    
     11190   1.011879      -5.5451147      0             -4.0279871      0.9900716    
     11200   0.99050632    -5.5129977      0             -4.0279144      1.1134889    
     11210   1.0125796     -5.5462714      0             -4.0280934      1.0162605    
     11220   1.022942      -5.5617356      0             -4.028021       0.96974242   
     11230   1.0017477     -5.5294198      0             -4.0274821      1.1107065    
     11240   0.99284137    -5.5155345      0             -4.0269503      1.1672744    
     11250   0.987856      -5.5078021      0             -4.0266926      1.1881976    
     11260   0.99142288    -5.5132006      0             -4.0267431      1.1558621    
     11270   1.0037483     -5.5313029      0             -4.0263658      1.0953187    
     11280   1.0150386     -5.5489632      0             -4.0270983      1.0485803    
     11290   1.0042594     -5.5333729      0             -4.0276694      1.1076575    
     11300   0.98274568    -5.5001738      0             -4.0267262      1.2396894    
     11310   0.98947582    -5.5110016      0             -4.0274634      1.2054157    
     11320   0.99400832    -5.5175565      0             -4.0272226      1.1547678    
     11330   0.99076983    -5.5120614      0             -4.0265831      1.1534775    
     11340   1.0023076     -5.5302141      0             -4.027437       1.0750931    
     11350   1.0162035     -5.5518253      0             -4.0282138      0.97570963   
     11360   1.0083602     -5.5397332      0             -4.0278815      1.0223399    
     11370   1.0001837     -5.5279964      0             -4.0284037      1.0939674    
     11380   0.98937255    -5.5115835      0             -4.0282002      1.1591486    
     11390   0.99100236    -5.5130381      0             -4.0272112      1.165651     
     11400   1.0106761     -5.5428577      0             -4.0275335      1.0672348    
     11410   1.0050043     -5.5350244      0             -4.0282041      1.0727367    
     11420   1.019172      -5.5564806      0             -4.0284185      0.98794998   
     11430   1.0055014     -5.5357027      0             -4.0281372      1.083428     
     11440   0.99268632    -5.5158418      0             -4.0274901      1.1581948    
     11450   1.0057115     -5.5354277      0             -4.0275471      1.0955704    
     11460   0.99332115    -5.517065       0             -4.0277615      1.1614354    
     11470   1.0046008     -5.5331746      0             -4.0269593      1.1137216    
     11480   1.0057491     -5.5350304      0             -4.0270934      1.117619     
     11490   1.0098196     -5.5410636      0             -4.0270237      1.1089267    
     11500   1.009156      -5.5400669      0             -4.0270219      1.1196936    
     11510   1.0028512     -5.5308389      0             -4.0272469      1.1411438    
     11520   1.0157841     -5.550571       0             -4.0275883      1.0628441    
     11530   0.99409796    -5.5176531      0             -4.0271848      1.1666648    
     11540   1.0033389     -5.5323638      0             -4.0280404      1.0914295    
     11550   1.0188768     -5.5563352      0             -4.0287157      0.98065567   
     11560   1.0210467     -5.5600312      0             -4.0291582      0.96268735   
     11570   1.0017521     -5.5309248      0             -4.0289807      1.0922072    
     11580   0.99436874    -5.5194418      0             -4.0285676      1.1527292    
     11590   1.0040404     -5.5335881      0             -4.028213       1.10638      
     11600   1.0064489     -5.5368399      0             -4.0278537      1.0867435    
     11610   1.0185462     -5.5550267      0             -4.0279027      1.0191031    
     11620   1.0055294     -5.5347822      0             -4.0271746      1.083993     
     11630   0.99271319    -5.5156008      0             -4.0272088      1.1304866    
     11640   0.97628188    -5.4913188      0             -4.0275626      1.22976      
     11650   0.99499802    -5.5190571      0             -4.0272394      1.1640537    
     11660   1.0303224     -5.5725388      0             -4.0277587      0.96047703   
     11670   1.0089915     -5.5403262      0             -4.0275278      1.0557586    
     11680   0.99294598    -5.5161855      0             -4.0274444      1.1304216    
     11690   0.99562724    -5.5198048      0             -4.0270437      1.1124495    
     11700   1.0094606     -5.5407839      0             -4.0272822      1.045289     
     11710   0.9974762     -5.5228233      0             -4.02729        1.1205001    
     11720   1.0157472     -5.5505246      0             -4.0275973      1.029969     
     11730   1.0213819     -5.5595903      0             -4.0282148      0.98964533   
     11740   1.0084768     -5.5396722      0             -4.0276456      1.0490936    
     11750   1.0067453     -5.5373416      0             -4.027911       1.0510539    
     11760   1.0284145     -5.5691375      0             -4.0272179      0.92585634   
     11770   0.99126191    -5.5139321      0             -4.0277161      1.1191397    
     11780   1.0073234     -5.5378552      0             -4.0275578      1.039683     
     11790   1.0107542     -5.5424386      0             -4.0269974      1.0324014    
     11800   1.0215205     -5.5589268      0             -4.0273435      0.99303919   
     11810   1.0128219     -5.5459414      0             -4.0274001      1.0412677    
     11820   1.0204087     -5.5577029      0             -4.0277865      0.98994359   
     11830   0.99278516    -5.5162906      0             -4.0277907      1.1492644    
     11840   1.0035386     -5.5322699      0             -4.0276472      1.0870798    
     11850   1.0183148     -5.5549937      0             -4.0282167      0.99834307   
     11860   0.99135528    -5.5145332      0             -4.0281772      1.1500508    
     11870   1.0021592     -5.530812       0             -4.0282574      1.1059821    
     11880   1.0078779     -5.5392792      0             -4.0281504      1.0788819    
     11890   0.99373717    -5.517257       0             -4.0273297      1.1521788    
     11900   1.0127766     -5.5461389      0             -4.0276654      1.0343945    
     11910   0.98656673    -5.5072246      0             -4.0280481      1.1735003    
     11920   0.99547       -5.5204915      0             -4.0279662      1.134283     
     11930   0.99633999    -5.5219897      0             -4.0281599      1.111611     
     11940   1.0082464     -5.5391407      0             -4.0274594      1.056005     
     11950   1.0005572     -5.5284997      0             -4.028347       1.1090395    
     11960   1.0206152     -5.559208       0             -4.0289821      1.0035565    
     11970   1.0025314     -5.5316514      0             -4.0285388      1.119138     
     11980   0.98089806    -5.499653       0             -4.0289757      1.2456756    
     11990   0.99564087    -5.5211998      0             -4.0284183      1.1308829    
     12000   1.0107857     -5.5440213      0             -4.0285329      1.0027088    
Loop time of 14.7585 on 1 procs for 10000 steps with 2197 atoms

Performance: 292713.220 tau/day, 677.577 timesteps/s, 1.489 Matom-step/s
99.9% CPU use with 1 MPI tasks x no OpenMP threads

MPI task timing breakdown:
Section |  min time  |  avg time  |  max time  |%varavg| %total
---------------------------------------------------------------
Pair    | 11.391     | 11.391     | 11.391     |   0.0 | 77.18
Neigh   | 2.8265     | 2.8265     | 2.8265     |   0.0 | 19.15
Comm    | 0.2019     | 0.2019     | 0.2019     |   0.0 |  1.37
Output  | 0.0073832  | 0.0073832  | 0.0073832  |   0.0 |  0.05
Modify  | 0.25681    | 0.25681    | 0.25681    |   0.0 |  1.74
Other   |            | 0.07471    |            |       |  0.51

Nlocal:           2197 ave        2197 max        2197 min
Histogram: 1 0 0 0 0 0 0 0 0 0
Nghost:           3843 ave        3843 max        3843 min
Histogram: 1 0 0 0 0 0 0 0 0 0
Neighs:          78585 ave       78585 max       78585 min
Histogram: 1 0 0 0 0 0 0 0 0 0

Total # of neighbors = 78585
Ave neighs/atom = 35.769231
Neighbor list builds = 1346
Dangerous builds = 0
Total wall time: 0:00:17
