LAMMPS (3 Aug 2023 - Development - )
Created orthogonal box = (0 0 0) to (14 14 14)
  1 by 1 by 1 MPI processor grid
Lattice spacing in x,y,z = 1.1006424 1.1006424 1.1006424
Created 2197 atoms
  using lattice units in orthogonal box = (0 0 0) to (14 14 14)
  create_atoms CPU = 0.000 seconds
Generated 0 of 0 mixed pair_coeff terms from geometric mixing rule
Neighbor list info ...
  update: every = 1 steps, delay = 0 steps, check = yes
  max neighbors/atom: 2000, page size: 100000
  master list distance cutoff = 2.8
  ghost atom cutoff = 2.8
  binsize = 1.4, bins = 10 10 10
  1 neighbor lists, perpetual/occasional/extra = 1 0 0
  (1) pair lj/cut, perpetual
      attributes: half, newton on
      pair build: half/bin/atomonly/newton
      stencil: half/bin/3d
      bin: standard
Setting up Verlet run ...
  Unit style    : lj
  Current step  : 0
  Time step     : 0.005
Per MPI rank memory allocation (min/avg/max) = 3.241 | 3.241 | 3.241 Mbytes
   Step          Temp          E_pair         E_mol          TotEng         Press     
         0   1.75           5.5678596      0              8.1916648      40.473167    
        10   5.4826635     -0.34145802     0              7.8787939      24.660561    
        20   6.3046397     -1.5873169      0              7.8653383      21.52926     
        30   6.7056899     -2.1831601      0              7.8707964      19.895264    
        40   6.7900102     -2.3090911      0              7.8712883      19.735311    
        50   6.7178278     -2.2007448      0              7.8714103      20.311334    
        60   6.5786318     -1.9955209      0              7.8679352      21.134739    
        70   6.2749782     -1.5440286      0              7.8641545      22.852193    
        80   6.2593325     -1.5211345      0              7.8635906      23.084818    
        90   6.262914      -1.5318775      0              7.8582175      23.05525     
       100   6.3416513     -1.6452175      0              7.8629296      22.581651    
       110   6.4908423     -1.8682891      0              7.8635427      21.683705    
       120   6.6379161     -2.0830784      0              7.8692636      20.781171    
       130   6.7503332     -2.2506824      0              7.8702085      19.969466    
       140   6.7812836     -2.2900544      0              7.8772411      19.62842     
       150   6.712812      -2.1881194      0              7.8765155      19.812453    
       160   6.8282802     -2.356988       0              7.8807703      19.159016    
       170   6.7894593     -2.299319       0              7.8802345      19.273194    
       180   6.7146148     -2.1878935      0              7.8794444      19.56238     
       190   6.7947087     -2.3113184      0              7.8761055      19.13015     
       200   6.671801      -2.1286573      0              7.8744891      19.77797     
       210   6.5113838     -1.8848242      0              7.8778059      20.689608    
       220   6.5370831     -1.9277119      0              7.8734496      20.480933    
       230   6.5957174     -2.0123519      0              7.876721       20.182613    
       240   6.6042317     -2.0264065      0              7.875432       20.126849    
       250   6.6775076     -2.13635        0              7.8753524      19.788902    
       260   6.6553046     -2.1004307      0              7.8779823      19.810274    
       270   6.7947724     -2.3105537      0              7.8769657      19.070134    
       280   6.5655827     -1.9635044      0              7.8803871      20.300611    
       290   6.7351016     -2.219366       0              7.878688       19.488048    
       300   6.6510892     -2.0965396      0              7.8755531      19.928891    
       310   6.5304072     -1.9113148      0              7.8798373      20.579437    
       320   6.5759446     -1.9808507      0              7.8785765      20.421857    
       330   6.6329955     -2.0690934      0              7.8758713      20.216028    
       340   6.6547412     -2.1011477      0              7.8764206      20.076351    
       350   6.56536       -1.9680916      0              7.875466       20.450516    
       360   6.6160332     -2.0465439      0              7.8729888      20.244254    
       370   6.6540546     -2.1021605      0              7.8743784      20.028972    
       380   6.6570837     -2.1048653      0              7.8762151      19.962969    
       390   6.5943371     -2.0086128      0              7.8783906      20.255822    
       400   6.6241829     -2.0521681      0              7.8795836      20.053513    
       410   6.732789      -2.2179161      0              7.8766706      19.513136    
       420   6.5817563     -1.9859544      0              7.8821864      20.197338    
       430   6.5914185     -2.0005628      0              7.8820647      20.190668    
       440   6.6557565     -2.1021403      0              7.8769502      19.783895    
       450   6.7119122     -2.1864128      0              7.8768729      19.550821    
       460   6.6503412     -2.0942953      0              7.876676       19.916209    
       470   6.5333154     -1.9165494      0              7.8789631      20.517562    
       480   6.628144      -2.0594491      0              7.8782416      20.083718    
       490   6.5777959     -1.9852795      0              7.8769234      20.306409    
       500   6.6872029     -2.1449981      0              7.8812407      19.728655    
       510   6.6405326     -2.078252       0              7.8780131      19.90044     
       520   6.6915143     -2.156043       0              7.8766598      19.593556    
       530   6.6357025     -2.0681413      0              7.880882       19.892547    
       540   6.6551089     -2.0966932      0              7.8814263      19.844756    
       550   6.7095518     -2.1809752      0              7.8787716      19.504399    
       560   6.6561859     -2.1014046      0              7.8783298      19.821655    
       570   6.7956776     -2.3093644      0              7.8795122      19.204807    
       580   6.6384763     -2.0774642      0              7.8757179      19.998489    
       590   6.6112234     -2.0352187      0              7.8771026      20.120042    
       600   6.6229735     -2.0534282      0              7.8765101      20.059728    
       610   6.5580637     -1.9531326      0              7.8794855      20.460286    
       620   6.72985       -2.2142514      0              7.8759287      19.641229    
       630   6.6272155     -2.0575343      0              7.8787642      20.049027    
       640   6.782092      -2.2902915      0              7.8782161      19.21412     
       650   6.6777937     -2.134666       0              7.8774652      19.735851    
       660   6.6827831     -2.1430849      0              7.876527       19.693453    
       670   6.6246757     -2.0513741      0              7.8811165      19.953735    
       680   6.7390385     -2.2273031      0              7.8766535      19.406999    
       690   6.5930331     -2.0083861      0              7.8766621      20.136619    
       700   6.6849814     -2.1445485      0              7.8783594      19.675046    
       710   6.6336039     -2.0659036      0              7.8799731      19.941956    
       720   6.6418945     -2.0785247      0              7.8797823      19.893871    
       730   6.6712585     -2.1259294      0              7.8764035      19.722107    
       740   6.6619643     -2.1095779      0              7.8788201      19.819017    
       750   6.7377478     -2.2256472      0              7.8763743      19.400805    
       760   6.5930634     -2.0038447      0              7.881249       20.106083    
       770   6.6331255     -2.0667636      0              7.8783959      19.926673    
       780   6.5927326     -2.008001       0              7.8765967      20.131102    
       790   6.6459834     -2.0852941      0              7.8791435      19.853394    
       800   6.6878272     -2.1486986      0              7.8784761      19.664583    
       810   6.6772945     -2.1329842      0              7.8783987      19.742955    
       820   6.6389782     -2.0766448      0              7.8772898      19.962437    
       830   6.5580772     -1.953607       0              7.8790313      20.375128    
       840   6.6901012     -2.1503447      0              7.8802394      19.698091    
       850   6.6490655     -2.093565       0              7.8754936      19.832465    
       860   6.736346      -2.2241373      0              7.8757824      19.427143    
       870   6.5289398     -1.91098        0              7.8779721      20.451347    
       880   6.6510027     -2.0943024      0              7.8776607      19.816145    
       890   6.7125821     -2.1887261      0              7.8755641      19.52653     
       900   6.5655977     -1.9632982      0              7.8806157      20.333405    
       910   6.5640075     -1.9633674      0              7.8781622      20.338781    
       920   6.6627942     -2.1122324      0              7.8774098      19.900749    
       930   6.6563628     -2.1026302      0              7.8773694      19.927978    
       940   6.6471503     -2.0868019      0              7.8793852      19.908352    
       950   6.7574941     -2.254548       0              7.8770795      19.269478    
       960   6.6252418     -2.0528714      0              7.8804679      20.00279     
       970   6.5770021     -1.9842011      0              7.8768116      20.193927    
       980   6.552053      -1.9442037      0              7.8794023      20.385948    
       990   6.6032419     -2.0221575      0              7.878197       20.061356    
      1000   6.5993619     -2.0155139      0              7.8790233      20.083338    
Loop time of 1.59702 on 1 procs for 1000 steps with 2197 atoms

Performance: 270503.485 tau/day, 626.165 timesteps/s, 1.376 Matom-step/s
99.9% CPU use with 1 MPI tasks x no OpenMP threads

MPI task timing breakdown:
Section |  min time  |  avg time  |  max time  |%varavg| %total
---------------------------------------------------------------
Pair    | 0.80903    | 0.80903    | 0.80903    |   0.0 | 50.66
Neigh   | 0.73252    | 0.73252    | 0.73252    |   0.0 | 45.87
Comm    | 0.032373   | 0.032373   | 0.032373   |   0.0 |  2.03
Output  | 0.00075766 | 0.00075766 | 0.00075766 |   0.0 |  0.05
Modify  | 0.01245    | 0.01245    | 0.01245    |   0.0 |  0.78
Other   |            | 0.009885   |            |       |  0.62

Nlocal:           2197 ave        2197 max        2197 min
Histogram: 1 0 0 0 0 0 0 0 0 0
Nghost:           3869 ave        3869 max        3869 min
Histogram: 1 0 0 0 0 0 0 0 0 0
Neighs:          79665 ave       79665 max       79665 min
Histogram: 1 0 0 0 0 0 0 0 0 0

Total # of neighbors = 79665
Ave neighs/atom = 36.26081
Neighbor list builds = 332
Dangerous builds = 0
Generated 0 of 0 mixed pair_coeff terms from geometric mixing rule
Setting up Verlet run ...
  Unit style    : lj
  Current step  : 1000
  Time step     : 0.005
Per MPI rank memory allocation (min/avg/max) = 3.244 | 3.244 | 3.244 Mbytes
   Step          Temp          E_pair         E_mol          TotEng         Press     
      1000   6.5993619     -2.0155139      0              7.8790233      20.083338    
      1010   5.5777983     -2.3400121      0              6.0228771      18.099901    
      1020   4.5765894     -2.877844       0              3.9839155      15.217918    
      1030   3.8472003     -3.4641083      0              2.3040655      12.249358    
      1040   3.1410899     -3.7189384      0              0.99055194     10.634411    
      1050   2.6975043     -4.03383        0              0.010584748    8.9360404    
      1060   2.3727474     -4.3288117      0             -0.77131052     7.3818792    
      1070   2.1288731     -4.5580747      0             -1.3662185      6.2038835    
      1080   1.9050026     -4.6873175      0             -1.8311142      5.4768115    
      1090   1.7619981     -4.8097325      0             -2.1679384      4.84604      
      1100   1.6897408     -4.9378611      0             -2.4044036      4.2366164    
      1110   1.6215042     -4.9859076      0             -2.5547584      3.9679855    
      1120   1.6007793     -5.0113472      0             -2.6112711      3.8609322    
      1130   1.6543696     -5.0550317      0             -2.5746068      3.7473381    
      1140   1.6683902     -4.966431       0             -2.4649848      4.144442     
      1150   1.766603      -4.9607363      0             -2.312038       4.2835118    
      1160   1.83462       -4.9265425      0             -2.1758651      4.4901298    
      1170   1.8461107     -4.8670757      0             -2.0991701      4.7199092    
      1180   1.8467        -4.8682546      0             -2.0994653      4.6916332    
      1190   1.8111886     -4.8809287      0             -2.1653823      4.5769191    
      1200   1.7630403     -4.920462       0             -2.2771053      4.4049892    
      1210   1.7064849     -4.9430565      0             -2.3844942      4.2632975    
      1220   1.727082      -5.0513311      0             -2.4618873      3.7935323    
      1230   1.6628771     -5.0097117      0             -2.5165313      3.88728      
      1240   1.6523469     -4.9938421      0             -2.5164499      3.9781013    
      1250   1.6862225     -4.9791559      0             -2.4509735      4.0927455    
      1260   1.7529029     -4.9724544      0             -2.3442969      4.163137     
      1270   1.8051607     -4.951979       0             -2.2454704      4.3107492    
      1280   1.8185046     -4.9116081      0             -2.1850928      4.5226476    
      1290   1.8086142     -4.879401       0             -2.1677146      4.6527071    
      1300   1.8062998     -4.8988546      0             -2.1906382      4.5436403    
      1310   1.7688224     -4.9053027      0             -2.2532768      4.4774067    
      1320   1.7211031     -4.9116292      0             -2.3311497      4.4236583    
      1330   1.7010545     -4.9420158      0             -2.3915955      4.2843522    
      1340   1.6968002     -4.9590386      0             -2.4149969      4.2011673    
      1350   1.6888015     -4.9332617      0             -2.4012124      4.3069295    
      1360   1.7263893     -4.9371706      0             -2.3487654      4.351599     
      1370   1.7767532     -4.9443805      0             -2.2804639      4.3460443    
      1380   1.8002106     -4.9324132      0             -2.2333263      4.368706     
      1390   1.7876408     -4.9047654      0             -2.2245247      4.482451     
      1400   1.737847      -4.8522432      0             -2.2466592      4.6996881    
      1410   1.7283274     -4.8590359      0             -2.2677248      4.6601206    
      1420   1.7765747     -4.9450903      0             -2.2814412      4.3112746    
      1430   1.7797091     -4.978685       0             -2.3103364      4.1601169    
      1440   1.7569979     -4.9909082      0             -2.356611       4.1387392    
      1450   1.690333      -4.9362839      0             -2.4019384      4.2957955    
      1460   1.7158452     -4.9879348      0             -2.4153384      4.07426      
      1470   1.7099081     -4.9653593      0             -2.4016646      4.1447616    
      1480   1.7790399     -5.0303241      0             -2.3629789      3.9659179    
      1490   1.740342      -4.9370517      0             -2.3277269      4.3115647    
      1500   1.7867934     -4.9733563      0             -2.2943861      4.1753452    
      1510   1.7772663     -4.9468303      0             -2.2821443      4.3222855    
      1520   1.7560932     -4.9168024      0             -2.2838616      4.4332754    
      1530   1.7860525     -4.9733083      0             -2.295449       4.1949931    
      1540   1.7484937     -4.9506992      0             -2.3291525      4.2496969    
      1550   1.7138677     -4.9323146      0             -2.3626832      4.2850124    
      1560   1.7378909     -4.9807472      0             -2.3750974      4.108357     
      1570   1.7234579     -4.9564546      0             -2.3724445      4.2088851    
      1580   1.7529751     -4.9784525      0             -2.3501867      4.1404161    
      1590   1.7545095     -4.9552633      0             -2.3246969      4.2710397    
      1600   1.7745181     -4.9632684      0             -2.3027028      4.251339     
      1610   1.8053959     -5.0025093      0             -2.2956482      4.0770245    
      1620   1.783638      -4.9973578      0             -2.3231187      4.0793725    
      1630   1.738948      -4.9804646      0             -2.3732298      4.111307     
      1640   1.7068954     -4.9752136      0             -2.4160358      4.1143114    
      1650   1.6937353     -4.9708187      0             -2.4313722      4.1543755    
      1660   1.7201511     -4.9868055      0             -2.4077532      4.113744     
      1670   1.7355196     -4.9543258      0             -2.3522314      4.241245     
      1680   1.7642611     -4.9315317      0             -2.2863445      4.3192482    
      1690   1.7817619     -4.9041555      0             -2.2327291      4.4161829    
      1700   1.8342943     -4.9577294      0             -2.2075403      4.2375954    
      1710   1.8104756     -4.9528924      0             -2.2384151      4.2801139    
      1720   1.7266982     -4.8993893      0             -2.3105208      4.4698694    
      1730   1.7176871     -4.9455347      0             -2.3701768      4.2937194    
      1740   1.7262412     -4.9909589      0             -2.4027757      4.0946259    
      1750   1.6963741     -4.9552931      0             -2.4118902      4.2068698    
      1760   1.7298219     -4.9841563      0             -2.3906044      4.1332199    
      1770   1.7419156     -4.9654125      0             -2.3537284      4.2239879    
      1780   1.761792      -4.9507114      0             -2.3092263      4.2992812    
      1790   1.7474399     -4.8912091      0             -2.2712423      4.5251381    
      1800   1.7999156     -4.9375644      0             -2.2389198      4.366007     
      1810   1.8158772     -4.9619496      0             -2.2393736      4.2669851    
      1820   1.7556463     -4.9134656      0             -2.2811948      4.4348487    
      1830   1.7492662     -4.9541054      0             -2.3314004      4.2629897    
      1840   1.7355744     -4.9844616      0             -2.382285       4.1023374    
      1850   1.7033386     -4.9711532      0             -2.4173083      4.1102176    
      1860   1.7218257     -5.0035288      0             -2.4219658      3.9987376    
      1870   1.7225535     -4.9872689      0             -2.4046148      4.0817559    
      1880   1.7097982     -4.9280023      0             -2.3644724      4.3128124    
      1890   1.7428926     -4.9166729      0             -2.3035239      4.4191484    
      1900   1.8160885     -4.9699442      0             -2.2470513      4.2707525    
      1910   1.8133697     -4.9520672      0             -2.2332506      4.3502037    
      1920   1.7684337     -4.9094646      0             -2.2580214      4.5005629    
      1930   1.7718371     -4.9588049      0             -2.3022589      4.278468     
      1940   1.7205234     -4.9326909      0             -2.3530805      4.3136653    
      1950   1.7179489     -4.9622104      0             -2.3864599      4.2040677    
      1960   1.7242651     -4.9830667      0             -2.3978463      4.0954739    
      1970   1.7043538     -4.9427731      0             -2.3874061      4.2251737    
      1980   1.7359997     -4.952093       0             -2.3492787      4.2007772    
      1990   1.7741939     -4.9573477      0             -2.2972682      4.2113302    
      2000   1.747642      -4.8725267      0             -2.2522568      4.567892     
Loop time of 1.19195 on 1 procs for 1000 steps with 2197 atoms

Performance: 362430.872 tau/day, 838.960 timesteps/s, 1.843 Matom-step/s
100.0% CPU use with 1 MPI tasks x no OpenMP threads

MPI task timing breakdown:
Section |  min time  |  avg time  |  max time  |%varavg| %total
---------------------------------------------------------------
Pair    | 0.76226    | 0.76226    | 0.76226    |   0.0 | 63.95
Neigh   | 0.3766     | 0.3766     | 0.3766     |   0.0 | 31.60
Comm    | 0.02196    | 0.02196    | 0.02196    |   0.0 |  1.84
Output  | 0.00067637 | 0.00067637 | 0.00067637 |   0.0 |  0.06
Modify  | 0.021786   | 0.021786   | 0.021786   |   0.0 |  1.83
Other   |            | 0.008661   |            |       |  0.73

Nlocal:           2197 ave        2197 max        2197 min
Histogram: 1 0 0 0 0 0 0 0 0 0
Nghost:           3852 ave        3852 max        3852 min
Histogram: 1 0 0 0 0 0 0 0 0 0
Neighs:          79126 ave       79126 max       79126 min
Histogram: 1 0 0 0 0 0 0 0 0 0

Total # of neighbors = 79126
Ave neighs/atom = 36.015476
Neighbor list builds = 178
Dangerous builds = 0
Generated 0 of 0 mixed pair_coeff terms from geometric mixing rule
Setting up Verlet run ...
  Unit style    : lj
  Current step  : 2000
  Time step     : 0.005
Per MPI rank memory allocation (min/avg/max) = 3.244 | 3.244 | 3.244 Mbytes
   Step          Temp          E_pair         E_mol          TotEng         Press     
      2000   1.747642      -4.8725267      0             -2.2522568      4.567892     
      2010   1.7515844     -4.8781974      0             -2.2520167      4.5391519    
      2020   1.7484514     -4.8737773      0             -2.252294       4.5481827    
      2030   1.8076947     -4.9615743      0             -2.2512664      4.2428601    
      2040   1.7452498     -4.8679017      0             -2.2512185      4.5920194    
      2050   1.7703267     -4.9059251      0             -2.2516438      4.474992     
      2060   1.8021312     -4.9537596      0             -2.2517932      4.3230492    
      2070   1.7804142     -4.9207556      0             -2.2513499      4.4739616    
      2080   1.7551854     -4.8831568      0             -2.2515771      4.6036976    
      2090   1.7371253     -4.856574       0             -2.2520722      4.6972244    
      2100   1.7534827     -4.8810001      0             -2.2519732      4.6026526    
      2110   1.7645667     -4.8973068      0             -2.2516616      4.5220253    
      2120   1.7714761     -4.9071127      0             -2.2511079      4.4946709    
      2130   1.7797857     -4.9207262      0             -2.2522629      4.4452526    
      2140   1.7638199     -4.8962881      0             -2.2517625      4.522024     
      2150   1.7973234     -4.9470564      0             -2.2522985      4.3343198    
      2160   1.7911569     -4.9377268      0             -2.2522144      4.3694947    
      2170   1.7777374     -4.916864       0             -2.2514716      4.4429094    
      2180   1.7653572     -4.8986962      0             -2.2518656      4.4999488    
      2190   1.7669589     -4.9017711      0             -2.2525391      4.4740984    
      2200   1.778326      -4.9181464      0             -2.2518716      4.427279     
      2210   1.7994485     -4.9498848      0             -2.2519406      4.3116045    
      2220   1.7482847     -4.873147       0             -2.2519135      4.5951522    
      2230   1.7913348     -4.9372407      0             -2.2514615      4.3621847    
      2240   1.7680236     -4.9024466      0             -2.2516183      4.4922035    
      2250   1.7798518     -4.9209136      0             -2.2523512      4.4464298    
      2260   1.7576101     -4.887217       0             -2.2520018      4.5705842    
      2270   1.8055303     -4.9593283      0             -2.2522656      4.3084242    
      2280   1.7628911     -4.8947849      0             -2.251652       4.5153891    
      2290   1.7696528     -4.9048896      0             -2.2516186      4.4925499    
      2300   1.7840054     -4.9264758      0             -2.2516856      4.4105155    
      2310   1.7729524     -4.9096796      0             -2.2514614      4.4578571    
      2320   1.7842854     -4.9272973      0             -2.2520874      4.3806548    
      2330   1.8162686     -4.9754886      0             -2.2523258      4.2201239    
      2340   1.7860154     -4.9303421      0             -2.2525385      4.3735586    
      2350   1.7969344     -4.9467886      0             -2.2526138      4.3263041    
      2360   1.7890651     -4.9343048      0             -2.2519286      4.3727148    
      2370   1.7956365     -4.9443775      0             -2.2521487      4.3459855    
      2380   1.7682598     -4.903505       0             -2.2523226      4.4780321    
      2390   1.7556038     -4.8842268      0             -2.2520198      4.5163107    
      2400   1.7734327     -4.9107492      0             -2.2518109      4.3952219    
      2410   1.7572612     -4.8858503      0             -2.2511582      4.4765894    
      2420   1.7837873     -4.9262515      0             -2.2517885      4.3794415    
      2430   1.768615      -4.9032422      0             -2.2515272      4.5011297    
      2440   1.7746633     -4.913085       0             -2.2523016      4.4575351    
      2450   1.7854755     -4.929249       0             -2.2522548      4.3612687    
      2460   1.7756079     -4.914843       0             -2.2526435      4.4242327    
      2470   1.7743825     -4.9125577      0             -2.2521954      4.4309821    
      2480   1.7944821     -4.9431777      0             -2.2526797      4.3346686    
      2490   1.8230385     -4.9865711      0             -2.253258       4.173201     
      2500   1.8021367     -4.954983       0             -2.2530084      4.302785     
      2510   1.7637462     -4.896669       0             -2.2522539      4.5497231    
      2520   1.7735072     -4.9110678      0             -2.2520178      4.5084221    
      2530   1.7543972     -4.8818163      0             -2.2514183      4.599562     
      2540   1.7601705     -4.8909136      0             -2.2518595      4.5754501    
      2550   1.778396      -4.9191611      0             -2.2527813      4.4781147    
      2560   1.7785375     -4.9189436      0             -2.2523517      4.4708119    
      2570   1.776188      -4.9153203      0             -2.252251       4.4603836    
      2580   1.7636538     -4.8969119      0             -2.2526354      4.5188904    
      2590   1.7697488     -4.905071       0             -2.2516561      4.4795252    
      2600   1.7688757     -4.9034172      0             -2.2513113      4.505532     
      2610   1.7932962     -4.9402416      0             -2.2515216      4.4017108    
      2620   1.7577675     -4.8868763      0             -2.2514252      4.6007853    
      2630   1.7919942     -4.9391149      0             -2.2523471      4.3818407    
      2640   1.8126788     -4.9696695      0             -2.2518889      4.2495828    
      2650   1.8121179     -4.9687964      0             -2.2518568      4.2510438    
      2660   1.7740207     -4.9110225      0             -2.2512026      4.4524919    
      2670   1.8011407     -4.9525163      0             -2.2520349      4.322372     
      2680   1.7663516     -4.9006318      0             -2.2523104      4.4931807    
      2690   1.8077367     -4.9624388      0             -2.2520681      4.2421522    
      2700   1.789487      -4.9351433      0             -2.2521346      4.3346899    
      2710   1.7948953     -4.9437959      0             -2.2526784      4.3468718    
      2720   1.776859      -4.9160526      0             -2.2519773      4.4683173    
      2730   1.7912971     -4.9374078      0             -2.2516852      4.4196451    
      2740   1.7674042     -4.9014662      0             -2.2515665      4.5416895    
      2750   1.7936979     -4.9415589      0             -2.2522366      4.3943536    
      2760   1.7608276     -4.8921276      0             -2.2520884      4.5907935    
      2770   1.798431      -4.9491649      0             -2.2527463      4.3769515    
      2780   1.7782277     -4.9182707      0             -2.2521433      4.4425755    
      2790   1.7834861     -4.9265858      0             -2.2525743      4.3953938    
      2800   1.7534658     -4.8814762      0             -2.2524746      4.5508215    
      2810   1.7739128     -4.9121701      0             -2.2525119      4.4462816    
      2820   1.8045308     -4.9584603      0             -2.2528962      4.2455278    
      2830   1.8045143     -4.9580144      0             -2.2524749      4.2767046    
      2840   1.7577439     -4.8879582      0             -2.2525425      4.5472267    
      2850   1.7877912     -4.9327054      0             -2.2522392      4.3889138    
      2860   1.7870256     -4.9323698      0             -2.2530515      4.3880869    
      2870   1.7585874     -4.8889042      0             -2.2522239      4.5538392    
      2880   1.7683792     -4.9034773      0             -2.2521158      4.5141975    
      2890   1.7680237     -4.9025619      0             -2.2517335      4.4723283    
      2900   1.7898069     -4.9353625      0             -2.2518741      4.3658465    
      2910   1.765016      -4.8977958      0             -2.2514768      4.547747     
      2920   1.7564331     -4.8848328      0             -2.2513824      4.5999147    
      2930   1.7702181     -4.9052198      0             -2.2511013      4.4857113    
      2940   1.7882823     -4.932449       0             -2.2512465      4.3386386    
      2950   1.7653663     -4.8982027      0             -2.2513586      4.4543236    
      2960   1.7604928     -4.8916311      0             -2.2520938      4.4979625    
      2970   1.7886621     -4.9346208      0             -2.2528488      4.3569246    
      2980   1.7426875     -4.8654581      0             -2.2526167      4.6262538    
      2990   1.7811855     -4.9226902      0             -2.252128       4.428725     
      3000   1.8025757     -4.9543478      0             -2.2517151      4.3204169    
      3010   1.7660836     -4.9000297      0             -2.25211        4.5131609    
      3020   1.7788274     -4.9194371      0             -2.2524104      4.440101     
      3030   1.7833349     -4.9256165      0             -2.2518318      4.415671     
      3040   1.788765      -4.9345749      0             -2.2526487      4.3512749    
      3050   1.7886587     -4.9343176      0             -2.2525508      4.3396624    
      3060   1.7506633     -4.8775883      0             -2.2527885      4.5436412    
      3070   1.769136      -4.9057653      0             -2.2532691      4.4348893    
      3080   1.7974664     -4.9479324      0             -2.25296        4.2449306    
      3090   1.8024075     -4.9555085      0             -2.2531279      4.2354175    
      3100   1.7755732     -4.914823       0             -2.2526755      4.3897509    
      3110   1.7778617     -4.9180975      0             -2.2525189      4.3533123    
      3120   1.7839747     -4.9267223      0             -2.2519783      4.3348176    
      3130   1.7833587     -4.9262909      0             -2.2524705      4.3542632    
      3140   1.775175      -4.9144368      0             -2.2528863      4.4153414    
      3150   1.7601492     -4.8918774      0             -2.2528554      4.5383578    
      3160   1.7645755     -4.8990149      0             -2.2533563      4.4857769    
      3170   1.8108294     -4.9684163      0             -2.2534086      4.2008276    
      3180   1.7604985     -4.8920215      0             -2.2524758      4.4831003    
      3190   1.7797885     -4.9212835      0             -2.2528159      4.4056276    
      3200   1.7840974     -4.9272702      0             -2.2523422      4.3810202    
      3210   1.8137169     -4.972966       0             -2.2536289      4.2605421    
      3220   1.7582105     -4.8894876      0             -2.2533722      4.5578216    
      3230   1.7876974     -4.933525       0             -2.2531994      4.3846002    
      3240   1.7619897     -4.8943332      0             -2.2525517      4.4954511    
      3250   1.7817843     -4.9239938      0             -2.2525339      4.4188566    
      3260   1.7756599     -4.9143853      0             -2.2521078      4.4768399    
      3270   1.7941333     -4.9421527      0             -2.2521777      4.351922     
      3280   1.7831333     -4.9266345      0             -2.253152       4.4233229    
      3290   1.7684525     -4.9052375      0             -2.2537661      4.5022388    
      3300   1.7828679     -4.9270285      0             -2.2539439      4.3977289    
      3310   1.813777      -4.9725487      0             -2.2531215      4.1884329    
      3320   1.7550203     -4.8839794      0             -2.2526472      4.5045488    
      3330   1.7966348     -4.9455481      0             -2.2518225      4.3161368    
      3340   1.7436855     -4.8667013      0             -2.2523636      4.5658783    
      3350   1.7817692     -4.9240171      0             -2.2525798      4.3833458    
      3360   1.7924554     -4.9393637      0             -2.2519043      4.3420783    
      3370   1.7953366     -4.943632       0             -2.251853       4.3143803    
      3380   1.7482987     -4.8726676      0             -2.2514133      4.5768499    
      3390   1.7422365     -4.8642357      0             -2.2520705      4.6290914    
      3400   1.7461007     -4.869804       0             -2.2518451      4.6162316    
      3410   1.7805858     -4.9211509      0             -2.2514879      4.4394208    
      3420   1.7625688     -4.894305       0             -2.2516552      4.5316632    
      3430   1.802439      -4.9550347      0             -2.2526067      4.3299843    
      3440   1.7858411     -4.9295963      0             -2.2520539      4.4143591    
      3450   1.7631506     -4.8953453      0             -2.2518232      4.5370392    
      3460   1.7918807     -4.9392179      0             -2.2526203      4.3641602    
      3470   1.7698695     -4.9060551      0             -2.2524593      4.4796417    
      3480   1.794565      -4.9438905      0             -2.2532683      4.3752926    
      3490   1.7607976     -4.892383       0             -2.2523888      4.5849638    
      3500   1.7382481     -4.8584579      0             -2.2522725      4.70879      
      3510   1.7906406     -4.9363448      0             -2.2516064      4.3933513    
      3520   1.7849319     -4.9273725      0             -2.2511933      4.4140746    
      3530   1.8054818     -4.9586331      0             -2.2516431      4.308805     
      3540   1.7569859     -4.8862443      0             -2.2519649      4.567091     
      3550   1.7445819     -4.8673054      0             -2.2516236      4.648459     
      3560   1.7876645     -4.9323728      0             -2.2520965      4.4015145    
      3570   1.7836741     -4.9261423      0             -2.2518489      4.4156546    
      3580   1.765368      -4.8992235      0             -2.2523768      4.5079815    
      3590   1.8105716     -4.9670062      0             -2.252385       4.2416089    
      3600   1.7557735     -4.8846818      0             -2.2522203      4.5213314    
      3610   1.7650484     -4.8987331      0             -2.2523655      4.4709243    
      3620   1.7844478     -4.9277964      0             -2.252343       4.3710719    
      3630   1.7657362     -4.8991972      0             -2.2517985      4.4880554    
      3640   1.7936688     -4.9412134      0             -2.2519348      4.365093     
      3650   1.785295      -4.9286504      0             -2.2519267      4.422291     
      3660   1.7718943     -4.9080971      0             -2.2514654      4.4897302    
      3670   1.7542163     -4.8826796      0             -2.2525528      4.5969046    
      3680   1.7727867     -4.9105122      0             -2.2525426      4.4583682    
      3690   1.763719      -4.8967401      0             -2.2523659      4.4792173    
      3700   1.7792557     -4.9202988      0             -2.25263        4.3875635    
      3710   1.8005766     -4.9519197      0             -2.2522841      4.3181571    
      3720   1.7458722     -4.8696652      0             -2.2520489      4.6476949    
      3730   1.7574695     -4.8871031      0             -2.2520987      4.5633899    
      3740   1.7995522     -4.9507064      0             -2.2526067      4.2979677    
      3750   1.777683      -4.9179277      0             -2.2526169      4.4223514    
      3760   1.7950896     -4.943553       0             -2.2521442      4.3584559    
      3770   1.7833108     -4.9249627      0             -2.251214       4.453537     
      3780   1.7790443     -4.9192987      0             -2.2519468      4.4679594    
      3790   1.7723828     -4.9089736      0             -2.2516096      4.4762714    
      3800   1.7958864     -4.9448267      0             -2.2522232      4.3267862    
      3810   1.7977539     -4.9476524      0             -2.2522489      4.3358981    
      3820   1.7706416     -4.9061998      0             -2.2514464      4.500954     
      3830   1.7925175     -4.938794       0             -2.2512417      4.3802162    
      3840   1.7756529     -4.9130839      0             -2.2508169      4.4647387    
      3850   1.7554643     -4.8829818      0             -2.250984       4.5485271    
      3860   1.7921564     -4.939013       0             -2.252002       4.3493391    
      3870   1.7798565     -4.9209322      0             -2.2523627      4.430439     
      3880   1.7671498     -4.9019913      0             -2.2524731      4.4966035    
      3890   1.7933279     -4.9404985      0             -2.2517311      4.3582771    
      3900   1.7456566     -4.8681965      0             -2.2509034      4.6370431    
      3910   1.7905836     -4.9356371      0             -2.2509842      4.4067578    
      3920   1.7862407     -4.929948       0             -2.2518065      4.4397074    
      3930   1.765048      -4.8988379      0             -2.2524709      4.559159     
      3940   1.7803524     -4.9224489      0             -2.2531358      4.4405931    
      3950   1.7485839     -4.8744741      0             -2.2527921      4.6074303    
      3960   1.7715047     -4.9082963      0             -2.2522489      4.472279     
      3970   1.7831788     -4.9264698      0             -2.2529191      4.3924945    
      3980   1.8099666     -4.966346       0             -2.2526319      4.2665628    
      3990   1.8056321     -4.9599672      0             -2.2527519      4.2588985    
      4000   1.8101151     -4.9668684      0             -2.2529316      4.2438408    
      4010   1.7350187     -4.8532928      0             -2.2519493      4.6695343    
      4020   1.7901678     -4.9360966      0             -2.2520671      4.3864439    
      4030   1.7687388     -4.904204       0             -2.2523034      4.5051699    
      4040   1.776452      -4.9164974      0             -2.2530323      4.447197     
      4050   1.7870264     -4.9321895      0             -2.25287        4.3390296    
      4060   1.7934474     -4.941976       0             -2.2530294      4.3024262    
      4070   1.7922585     -4.9396235      0             -2.2524594      4.3210061    
      4080   1.7984153     -4.9479667      0             -2.2515715      4.2979726    
      4090   1.8193359     -4.9798429      0             -2.2520812      4.1956412    
      4100   1.7884022     -4.9336055      0             -2.2522233      4.3814368    
      4110   1.7740853     -4.9125281      0             -2.2526114      4.4791287    
      4120   1.799877      -4.9506285      0             -2.2520419      4.3528104    
      4130   1.7965634     -4.9455683      0             -2.2519498      4.331131     
      4140   1.7671001     -4.901001       0             -2.2515574      4.5039056    
      4150   1.7559909     -4.884701       0             -2.2519135      4.5833088    
      4160   1.7863186     -4.9306248      0             -2.2523665      4.4190947    
      4170   1.7661173     -4.899919       0             -2.2519489      4.5264724    
      4180   1.7595468     -4.8888022      0             -2.2506833      4.6113252    
      4190   1.774233      -4.9113104      0             -2.2511722      4.5352585    
      4200   1.7819051     -4.9234907      0             -2.2518497      4.4256995    
      4210   1.7648216     -4.8981892      0             -2.2521617      4.4412857    
      4220   1.8162017     -4.9753268      0             -2.2522642      4.1628756    
      4230   1.7835317     -4.9257472      0             -2.2516674      4.353141     
      4240   1.7808247     -4.9213552      0             -2.251334       4.4139817    
      4250   1.7633165     -4.8961605      0             -2.2523897      4.4914465    
      4260   1.8134082     -4.9722209      0             -2.2533467      4.2159816    
      4270   1.769958      -4.9062626      0             -2.252534       4.456262     
      4280   1.7812498     -4.923255       0             -2.2525964      4.4270531    
      4290   1.7842492     -4.9269069      0             -2.2517513      4.4158189    
      4300   1.8069929     -4.9607826      0             -2.2515269      4.3072285    
      4310   1.8111166     -4.9678486      0             -2.2524102      4.3023229    
      4320   1.7983061     -4.9483403      0             -2.2521089      4.3781117    
      4330   1.7688841     -4.9036323      0             -2.2515139      4.5740189    
      4340   1.775763      -4.9143001      0             -2.251868       4.5541453    
      4350   1.7860048     -4.9295648      0             -2.251777       4.4677065    
      4360   1.782756      -4.9246202      0             -2.2517034      4.4349667    
      4370   1.7728871     -4.909933       0             -2.2518129      4.4934035    
      4380   1.7848895     -4.9287973      0             -2.2526817      4.4384445    
      4390   1.7715379     -4.9080683      0             -2.251971       4.4775355    
      4400   1.7468061     -4.8703731      0             -2.2513566      4.6134335    
      4410   1.776007      -4.9149502      0             -2.2521522      4.46656      
      4420   1.7485731     -4.8731283      0             -2.2514624      4.5869586    
      4430   1.7863388     -4.9304998      0             -2.2522112      4.3726487    
      4440   1.7719846     -4.9086645      0             -2.2518975      4.4693864    
      4450   1.7785038     -4.9186983      0             -2.2521568      4.4179177    
      4460   1.8043765     -4.9578541      0             -2.2525213      4.2669288    
      4470   1.7904623     -4.9374516      0             -2.2529805      4.3722575    
      4480   1.7902275     -4.9357027      0             -2.2515837      4.3633201    
      4490   1.7695571     -4.9047328      0             -2.2516053      4.485268     
      4500   1.7823767     -4.9235705      0             -2.2512224      4.4083465    
      4510   1.7668881     -4.9006868      0             -2.251561       4.5132897    
      4520   1.7735965     -4.9110592      0             -2.2518754      4.5119912    
      4530   1.7828138     -4.9244548      0             -2.2514513      4.4591872    
      4540   1.7727927     -4.9095238      0             -2.251545       4.4941611    
      4550   1.767399      -4.9016522      0             -2.2517604      4.5119858    
      4560   1.8031154     -4.955815       0             -2.2523729      4.2956369    
      4570   1.7831566     -4.9259811      0             -2.2524636      4.3673909    
      4580   1.7774869     -4.9176025      0             -2.2525857      4.3804717    
      4590   1.787567      -4.9333698      0             -2.2532398      4.3637102    
      4600   1.7219022     -4.8338553      0             -2.2521776      4.7338227    
      4610   1.7803398     -4.9217441      0             -2.2524499      4.4010968    
      4620   1.7578987     -4.8879964      0             -2.2523485      4.5283747    
      4630   1.7718397     -4.9081951      0             -2.2516452      4.4610728    
      4640   1.7845814     -4.9274115      0             -2.2517578      4.3636637    
      4650   1.7953779     -4.9441718      0             -2.2523308      4.3237035    
      4660   1.7955212     -4.9448653      0             -2.2528095      4.3343982    
      4670   1.774516      -4.9125962      0             -2.2520337      4.3951531    
      4680   1.7971111     -4.9465333      0             -2.2520937      4.2985777    
      4690   1.7828169     -4.9246914      0             -2.2516832      4.4074591    
      4700   1.7920216     -4.9386845      0             -2.2518756      4.360345     
      4710   1.7724631     -4.908647       0             -2.2511626      4.4736478    
      4720   1.7578703     -4.8872658      0             -2.2516605      4.5329139    
      4730   1.7719127     -4.9088614      0             -2.2522021      4.4725423    
      4740   1.7671969     -4.9022811      0             -2.2526923      4.499779     
      4750   1.8082138     -4.9642738      0             -2.2531878      4.2671811    
      4760   1.8000203     -4.951319       0             -2.2525175      4.2825694    
      4770   1.7942235     -4.942668       0             -2.2525576      4.3392695    
      4780   1.7879084     -4.9331365      0             -2.2524945      4.3948128    
      4790   1.7685524     -4.9036903      0             -2.2520691      4.5338721    
      4800   1.7430826     -4.8651735      0             -2.2517396      4.6823434    
      4810   1.7716551     -4.9087326      0             -2.2524595      4.506881     
      4820   1.7895452     -4.9347238      0             -2.2516278      4.3752048    
      4830   1.7671325     -4.9015703      0             -2.252078       4.47648      
      4840   1.7780224     -4.9177156      0             -2.2518959      4.4359204    
      4850   1.8022499     -4.9538611      0             -2.2517167      4.3190792    
      4860   1.7788633     -4.9189984      0             -2.251918       4.4495363    
      4870   1.7847056     -4.9278317      0             -2.2519918      4.4378835    
      4880   1.7705293     -4.905908       0             -2.2513229      4.5008507    
      4890   1.7685309     -4.9032101      0             -2.2516213      4.480238     
      4900   1.7708449     -4.906669       0             -2.2516106      4.4406588    
      4910   1.7896139     -4.9350518      0             -2.2518528      4.3382603    
      4920   1.7848641     -4.9280675      0             -2.25199        4.3847882    
      4930   1.7794958     -4.9198907      0             -2.2518619      4.4554567    
      4940   1.7464149     -4.8703389      0             -2.251909       4.6566357    
      4950   1.7730186     -4.9105622      0             -2.2522448      4.5073561    
      4960   1.7784214     -4.9179882      0             -2.2515703      4.444294     
      4970   1.768593      -4.9040948      0             -2.2524128      4.4607333    
      4980   1.7799684     -4.9217743      0             -2.253037       4.3997499    
      4990   1.7909332     -4.9381301      0             -2.252953       4.3626718    
      5000   1.7609376     -4.8928716      0             -2.2526675      4.538477     
      5010   1.7937695     -4.942403       0             -2.2529733      4.3584893    
      5020   1.7695796     -4.9060889      0             -2.2529276      4.48349      
      5030   1.7751517     -4.9142319      0             -2.2527163      4.4511745    
      5040   1.7844902     -4.9285694      0             -2.2530525      4.385507     
      5050   1.751413      -4.8784518      0             -2.252528       4.5860754    
      5060   1.776268      -4.9156918      0             -2.2525026      4.4578011    
      5070   1.7530528     -4.8802829      0             -2.2519006      4.5930275    
      5080   1.759744      -4.890259       0             -2.2518444      4.5515005    
      5090   1.7975851     -4.9471774      0             -2.2520271      4.2895579    
      5100   1.7859308     -4.9297189      0             -2.2520421      4.3247513    
      5110   1.7736924     -4.9119826      0             -2.252655       4.4047645    
      5120   1.7810901     -4.9224739      0             -2.2520547      4.3927513    
      5130   1.7509776     -4.8775207      0             -2.2522498      4.5891222    
      5140   1.7670628     -4.9020886      0             -2.2527009      4.5301028    
      5150   1.7813272     -4.924092       0             -2.2533174      4.409439     
      5160   1.7623124     -4.8949509      0             -2.2526855      4.4745612    
      5170   1.8164528     -4.9764167      0             -2.2529778      4.1677744    
      5180   1.7463562     -4.8709311      0             -2.2525892      4.5378894    
      5190   1.756335      -4.8860828      0             -2.2527794      4.5258832    
      5200   1.7254955     -4.8389025      0             -2.2518373      4.7021203    
      5210   1.7695946     -4.9050185      0             -2.2518347      4.446322     
      5220   1.7812542     -4.9229842      0             -2.252319       4.3776954    
      5230   1.7608653     -4.8918641      0             -2.2517684      4.518915     
      5240   1.7491494     -4.8746573      0             -2.2521275      4.6042025    
      5250   1.798183      -4.9486206      0             -2.2525738      4.362954     
      5260   1.7539168     -4.8817131      0             -2.2520353      4.6023225    
      5270   1.7916433     -4.9383966      0             -2.2521549      4.350578     
      5280   1.813182      -4.9702868      0             -2.2517517      4.1937012    
      5290   1.794862      -4.9433233      0             -2.2522557      4.3214686    
      5300   1.7626109     -4.8949697      0             -2.2522567      4.5045723    
      5310   1.7404055     -4.8614922      0             -2.2520722      4.6437876    
      5320   1.7417829     -4.8639516      0             -2.2524664      4.6572934    
      5330   1.7537419     -4.8820408      0             -2.2526253      4.5931418    
      5340   1.7863336     -4.9307815      0             -2.2525007      4.397651     
      5350   1.7635206     -4.8968789      0             -2.252802       4.5197547    
      5360   1.7734596     -4.912624       0             -2.2536454      4.4753356    
      5370   1.7765232     -4.9160504      0             -2.2524786      4.4222694    
      5380   1.7888827     -4.9350331      0             -2.2529305      4.3450935    
      5390   1.7669839     -4.9013562      0             -2.2520868      4.5005243    
      5400   1.7585615     -4.8882233      0             -2.2515816      4.5429774    
      5410   1.8237048     -4.9859242      0             -2.2516121      4.2097902    
      5420   1.7841038     -4.9276444      0             -2.2527068      4.4522782    
      5430   1.7799658     -4.9209936      0             -2.2522602      4.46172      
      5440   1.7427269     -4.8643965      0             -2.2514959      4.6303236    
      5450   1.7863824     -4.9309691      0             -2.2526151      4.380618     
      5460   1.7862551     -4.9311507      0             -2.2529877      4.3886445    
      5470   1.7824953     -4.9247436      0             -2.2522177      4.4117853    
      5480   1.7928407     -4.940156       0             -2.252119       4.3648673    
      5490   1.8122784     -4.969451       0             -2.2522707      4.2672614    
      5500   1.7770559     -4.9166315      0             -2.2522609      4.4370806    
      5510   1.7569433     -4.8860669      0             -2.2518515      4.5542855    
      5520   1.7759437     -4.9148448      0             -2.2521417      4.4530038    
      5530   1.7928659     -4.9406888      0             -2.252614       4.3133807    
      5540   1.7675547     -4.902131       0             -2.2520057      4.4446833    
      5550   1.777118      -4.9165538      0             -2.2520902      4.4277439    
      5560   1.7954946     -4.9444519      0             -2.2524359      4.3369104    
      5570   1.7866387     -4.9313336      0             -2.2525953      4.4321004    
      5580   1.7463311     -4.8703465      0             -2.252042       4.640847     
      5590   1.7887639     -4.9338322      0             -2.2519076      4.3691132    
      5600   1.7579724     -4.8874847      0             -2.2517263      4.5304041    
      5610   1.7801448     -4.9204497      0             -2.2514479      4.4538754    
      5620   1.8033622     -4.9560337      0             -2.2522216      4.3351217    
      5630   1.814026      -4.9710135      0             -2.251213       4.2605716    
      5640   1.7910053     -4.9372071      0             -2.251922       4.3836053    
      5650   1.7752359     -4.9135599      0             -2.2519181      4.4314169    
      5660   1.8007142     -4.9515296      0             -2.2516877      4.2742149    
      5670   1.7874524     -4.9314194      0             -2.2514612      4.3662243    
      5680   1.7819955     -4.9231359      0             -2.2513593      4.3989932    
      5690   1.8059717     -4.9586158      0             -2.2508913      4.2519391    
      5700   1.7987883     -4.9485895      0             -2.2516352      4.3072728    
      5710   1.789994      -4.9358122      0             -2.2520433      4.3591368    
      5720   1.7788031     -4.9181317      0             -2.2511415      4.4112648    
      5730   1.7611351     -4.8924933      0             -2.251993       4.5211957    
      5740   1.7978119     -4.9473396      0             -2.2518492      4.329585     
      5750   1.7900733     -4.9363992      0             -2.2525114      4.3391038    
      5760   1.7621653     -4.8938951      0             -2.2518503      4.4942928    
      5770   1.7885809     -4.9343118      0             -2.2526617      4.315027     
      5780   1.7829318     -4.9254375      0             -2.252257       4.3560872    
      5790   1.7237052     -4.8359761      0             -2.2515951      4.7218408    
      5800   1.746395      -4.8705201      0             -2.25212        4.6196834    
      5810   1.7688098     -4.9042764      0             -2.2522694      4.5246922    
      5820   1.7358173     -4.8548108      0             -2.25227        4.7246497    
      5830   1.7971146     -4.9463784      0             -2.2519335      4.3585751    
      5840   1.7816925     -4.9229007      0             -2.2515784      4.3958317    
      5850   1.794337      -4.9420483      0             -2.251768       4.3231425    
      5860   1.7867924     -4.9308326      0             -2.2518639      4.3923326    
      5870   1.7728156     -4.9099412      0             -2.2519281      4.4701952    
      5880   1.8188188     -4.9788505      0             -2.2518641      4.2327286    
      5890   1.7680452     -4.9034973      0             -2.2526367      4.5155387    
      5900   1.7674396     -4.9022956      0             -2.2523429      4.5034012    
      5910   1.7638751     -4.897742       0             -2.2531336      4.5282804    
      5920   1.7722338     -4.9097141      0             -2.2525734      4.5437324    
      5930   1.7916751     -4.9392501      0             -2.2529607      4.4305972    
      5940   1.7915965     -4.9394138      0             -2.2532423      4.4021273    
      5950   1.7586317     -4.8891935      0             -2.2524465      4.580292     
      5960   1.8012091     -4.9529906      0             -2.2524067      4.362438     
      5970   1.7918026     -4.9395278      0             -2.2530473      4.4317258    
      5980   1.7709136     -4.9079171      0             -2.2527557      4.5434134    
      5990   1.7746969     -4.9133308      0             -2.2524972      4.5349094    
      6000   1.7754347     -4.9141163      0             -2.2521764      4.5063308    
      6010   1.7810104     -4.9221131      0             -2.2518135      4.4547492    
      6020   1.7936013     -4.9415077      0             -2.2523304      4.4084602    
      6030   1.7759398     -4.9150259      0             -2.2523286      4.5218631    
      6040   1.8003448     -4.9518744      0             -2.2525864      4.3422415    
      6050   1.7900131     -4.9363951      0             -2.2525976      4.3487562    
      6060   1.7842094     -4.9273737      0             -2.2522777      4.3627337    
      6070   1.7850528     -4.9295586      0             -2.2531982      4.3442468    
      6080   1.7761997     -4.9162872      0             -2.2532004      4.3836336    
      6090   1.778238      -4.9194867      0             -2.2533438      4.4116095    
      6100   1.8088235     -4.9642571      0             -2.2522568      4.2916701    
      6110   1.7731628     -4.9108957      0             -2.2523621      4.4478878    
      6120   1.7797355     -4.9207979      0             -2.2524098      4.3886204    
      6130   1.7749404     -4.9143742      0             -2.2531755      4.4178369    
      6140   1.7782149     -4.9188221      0             -2.2527138      4.4105014    
      6150   1.7621357     -4.8942223      0             -2.2522219      4.5121414    
      6160   1.7777182     -4.9171598      0             -2.2517962      4.4116821    
      6170   1.7721679     -4.9092583      0             -2.2522163      4.4350489    
      6180   1.7985087     -4.948229       0             -2.2516939      4.2956559    
      6190   1.7658825     -4.8993862      0             -2.2517681      4.4825224    
      6200   1.770612      -4.9063385      0             -2.2516294      4.450535     
      6210   1.7645442     -4.8974728      0             -2.2518611      4.4890747    
      6220   1.8050533     -4.9583535      0             -2.2520059      4.3104169    
      6230   1.8233752     -4.9862188      0             -2.2524009      4.1845372    
      6240   1.7570562     -4.8867327      0             -2.2523479      4.5451005    
      6250   1.7669196     -4.9009992      0             -2.2518262      4.4853209    
      6260   1.798164      -4.9471049      0             -2.2510865      4.2749875    
      6270   1.7786297     -4.9185162      0             -2.2517861      4.3906867    
      6280   1.788441      -4.9336418      0             -2.2522014      4.3889497    
      6290   1.7567092     -4.8855495      0             -2.2516851      4.584364     
      6300   1.7618681     -4.8930507      0             -2.2514515      4.5513953    
      6310   1.776862      -4.9155641      0             -2.2514842      4.4530512    
      6320   1.7759739     -4.9146512      0             -2.2519028      4.4487775    
      6330   1.7769614     -4.9172318      0             -2.253003       4.4308697    
      6340   1.765384      -4.8996478      0             -2.2527771      4.4712294    
      6350   1.7808328     -4.9227295      0             -2.2526961      4.3948154    
      6360   1.7497331     -4.8750414      0             -2.2516365      4.578513     
      6370   1.7511785     -4.8768467      0             -2.2512745      4.5921923    
      6380   1.7577782     -4.8872049      0             -2.2517376      4.5446882    
      6390   1.7585584     -4.8879967      0             -2.2513597      4.5287037    
      6400   1.7787734     -4.9187948      0             -2.2518491      4.4537536    
      6410   1.7711392     -4.9075406      0             -2.252041       4.5246459    
      6420   1.7633407     -4.8954845      0             -2.2516774      4.557881     
      6430   1.7275915     -4.8415183      0             -2.2513105      4.7015288    
      6440   1.7937126     -4.9409579      0             -2.2516136      4.321639     
      6450   1.7751335     -4.9132178      0             -2.2517295      4.4441153    
      6460   1.7541867     -4.8814616      0             -2.2513792      4.5729575    
      6470   1.7638858     -4.8972464      0             -2.252622       4.5039437    
      6480   1.7989212     -4.9503284      0             -2.2531748      4.3079465    
      6490   1.7534749     -4.8811799      0             -2.2521647      4.5562729    
      6500   1.8086327     -4.9645087      0             -2.2527946      4.2329357    
      6510   1.7782506     -4.9182037      0             -2.2520419      4.3922309    
      6520   1.7633099     -4.8961039      0             -2.2523429      4.5084188    
      6530   1.7526788     -4.8800146      0             -2.2521931      4.5651109    
      6540   1.7934836     -4.9415307      0             -2.2525297      4.3366646    
      6550   1.7550962     -4.8834332      0             -2.2519872      4.5274764    
      6560   1.7842384     -4.9275236      0             -2.2523842      4.3542051    
      6570   1.7815759     -4.9229639      0             -2.2518165      4.3788725    
      6580   1.7781858     -4.9186362      0             -2.2525715      4.4138679    
      6590   1.7561906     -4.8857603      0             -2.2526734      4.571584     
      6600   1.7564639     -4.8854861      0             -2.2519894      4.5953581    
      6610   1.7767626     -4.9148825      0             -2.2509517      4.5105183    
      6620   1.7763078     -4.9148322      0             -2.2515832      4.512137     
      6630   1.7928314     -4.9401567      0             -2.2521337      4.3997268    
      6640   1.793417      -4.940937       0             -2.2520359      4.4008691    
      6650   1.7905449     -4.9369362      0             -2.2523413      4.4161491    
      6660   1.8064155     -4.9605636      0             -2.2521737      4.316193     
      6670   1.77758       -4.9177152      0             -2.2525589      4.4833051    
      6680   1.7795295     -4.9209808      0             -2.2529015      4.4354829    
      6690   1.7683801     -4.9042282      0             -2.2528654      4.470206     
      6700   1.7752456     -4.9140381      0             -2.2523817      4.4541278    
      6710   1.7937167     -4.9422778      0             -2.2529275      4.3618772    
      6720   1.7783613     -4.9198082      0             -2.2534804      4.4429218    
      6730   1.7934187     -4.9422485      0             -2.2533449      4.3228734    
      6740   1.7559432     -4.8855614      0             -2.2528455      4.4792608    
      6750   1.7935174     -4.9416524      0             -2.2526009      4.2730407    
      6760   1.7907304     -4.9381375      0             -2.2532644      4.3261723    
      6770   1.8103312     -4.9673923      0             -2.2531315      4.2699747    
      6780   1.771175      -4.9081204      0             -2.2525671      4.473395     
      6790   1.764         -4.8970985      0             -2.2523029      4.5257633    
      6800   1.759843      -4.8910889      0             -2.2525259      4.5747008    
      6810   1.8077778     -4.9619454      0             -2.251513       4.318892     
      6820   1.7799539     -4.9202877      0             -2.2515722      4.4498667    
      6830   1.7921239     -4.9389849      0             -2.2520227      4.3501809    
      6840   1.7964866     -4.9460074      0             -2.252504       4.3033471    
      6850   1.7711059     -4.907848       0             -2.2523983      4.4617294    
      6860   1.7692542     -4.9053907      0             -2.2527174      4.4941327    
      6870   1.7871019     -4.932134       0             -2.2527013      4.4098498    
      6880   1.7372688     -4.8567507      0             -2.2520336      4.6852349    
      6890   1.7595295     -4.890723       0             -2.2526301      4.5702735    
      6900   1.7611679     -4.8925726      0             -2.2520232      4.54994      
      6910   1.7718178     -4.9091971      0             -2.25268        4.4897231    
      6920   1.7810216     -4.9232319      0             -2.2529155      4.4319762    
      6930   1.7393542     -4.8598958      0             -2.252052       4.6566674    
      6940   1.777525      -4.9169195      0             -2.2518457      4.4982824    
      6950   1.7810437     -4.9222636      0             -2.251914       4.4826563    
      6960   1.7830364     -4.9253284      0             -2.2519911      4.4190776    
      6970   1.7943685     -4.9425942      0             -2.2522665      4.3342367    
      6980   1.7598024     -4.8909087      0             -2.2524067      4.5342162    
      6990   1.7830129     -4.9262701      0             -2.252968       4.4442476    
      7000   1.7706163     -4.9066572      0             -2.2519416      4.5182836    
      7010   1.7754357     -4.9135321      0             -2.2515908      4.4998185    
      7020   1.7838322     -4.9261618      0             -2.2516314      4.4270864    
      7030   1.7926105     -4.9391679      0             -2.251476       4.3625041    
      7040   1.7890591     -4.9345426      0             -2.2521753      4.3703774    
      7050   1.7930189     -4.9400723      0             -2.2517681      4.3283469    
      7060   1.7663478     -4.9003805      0             -2.2520648      4.4569967    
      7070   1.7667042     -4.9014         0             -2.2525499      4.4567151    
      7080   1.7891142     -4.9349204      0             -2.2524707      4.3475025    
      7090   1.7704507     -4.9078185      0             -2.2533512      4.4731789    
      7100   1.7561769     -4.8858129      0             -2.2527465      4.5417936    
      7110   1.7787308     -4.9197188      0             -2.252837       4.3798848    
      7120   1.7851319     -4.9287067      0             -2.2522276      4.3407617    
      7130   1.7706725     -4.9069982      0             -2.2521984      4.459794     
      7140   1.7575805     -4.8868694      0             -2.2516987      4.5178094    
      7150   1.7666695     -4.9011205      0             -2.2523225      4.4897861    
      7160   1.7477494     -4.8726924      0             -2.2522616      4.5916072    
      7170   1.7569994     -4.8865048      0             -2.2522053      4.533146     
      7180   1.7886536     -4.9346867      0             -2.2529275      4.338475     
      7190   1.7962472     -4.9457397      0             -2.2525952      4.2992396    
      7200   1.7741272     -4.9126173      0             -2.2526378      4.421927     
      7210   1.7564598     -4.8861498      0             -2.2526593      4.5022145    
      7220   1.8151151     -4.9749327      0             -2.2534992      4.1865918    
      7230   1.7658748     -4.9006486      0             -2.2530421      4.47383      
      7240   1.7788899     -4.9201734      0             -2.2530532      4.4153538    
      7250   1.7800278     -4.9216208      0             -2.2527944      4.406605     
      7260   1.7582011     -4.8889213      0             -2.2528201      4.5089089    
      7270   1.7723043     -4.9099177      0             -2.2526712      4.4048053    
      7280   1.7788        -4.9192798      0             -2.2522942      4.3790982    
      7290   1.7823928     -4.9249068      0             -2.2525345      4.3887685    
      7300   1.7717369     -4.9092996      0             -2.2529038      4.448066     
      7310   1.7877051     -4.9330538      0             -2.2527167      4.3929826    
      7320   1.7807174     -4.921672       0             -2.2518118      4.4546533    
      7330   1.7626273     -4.8940305      0             -2.2512929      4.5756893    
      7340   1.758672      -4.8876869      0             -2.2508797      4.5887938    
      7350   1.8050767     -4.958734       0             -2.2523514      4.2683679    
      7360   1.7989978     -4.9494663      0             -2.2521978      4.2857463    
      7370   1.7899859     -4.9363308      0             -2.2525741      4.3493199    
      7380   1.7802967     -4.9216602      0             -2.2524307      4.3973968    
      7390   1.7517058     -4.8786407      0             -2.2522781      4.5566244    
      7400   1.7464845     -4.8704452      0             -2.2519109      4.6056716    
      7410   1.8042139     -4.9567629      0             -2.2516738      4.2923561    
      7420   1.7832266     -4.9248402      0             -2.2512178      4.4048883    
      7430   1.7688469     -4.9035189      0             -2.2514563      4.4944541    
      7440   1.7675575     -4.9008213      0             -2.2506919      4.4854362    
      7450   1.7769888     -4.9157987      0             -2.2515287      4.4413054    
      7460   1.7643858     -4.8972477      0             -2.2518736      4.5170875    
      7470   1.7779745     -4.9180326      0             -2.2522848      4.4371487    
      7480   1.7713133     -4.9072862      0             -2.2515255      4.4821192    
      7490   1.7524778     -4.8785599      0             -2.2510397      4.56829      
      7500   1.7687693     -4.9036317      0             -2.2516854      4.4886407    
      7510   1.7967706     -4.9454647      0             -2.2515356      4.3592093    
      7520   1.7523065     -4.8785342      0             -2.2512709      4.6072676    
      7530   1.7556284     -4.8833904      0             -2.2511465      4.5729192    
      7540   1.7938243     -4.9411072      0             -2.2515955      4.3579418    
      7550   1.7765869     -4.9157736      0             -2.2521062      4.4744468    
      7560   1.7675583     -4.9029588      0             -2.2528282      4.5240911    
      7570   1.7628311     -4.8953171      0             -2.252274       4.5667399    
      7580   1.7620421     -4.8940735      0             -2.2522135      4.5811682    
      7590   1.7552533     -4.8836043      0             -2.2519228      4.5664191    
      7600   1.8026198     -4.9558782      0             -2.2531793      4.2914149    
      7610   1.7670883     -4.9017103      0             -2.2522843      4.4685873    
      7620   1.7702868     -4.9058927      0             -2.2516711      4.4547845    
      7630   1.7606816     -4.8914444      0             -2.2516241      4.5370917    
      7640   1.7633484     -4.8964232      0             -2.2526045      4.5216529    
      7650   1.7621244     -4.8945962      0             -2.2526127      4.5265069    
      7660   1.7863248     -4.9302562      0             -2.2519886      4.4232038    
      7670   1.7710602     -4.9073761      0             -2.2519949      4.5146464    
      7680   1.7761903     -4.9153984      0             -2.2523256      4.5210897    
      7690   1.7564528     -4.8849251      0             -2.2514451      4.6221264    
      7700   1.7663451     -4.8997606      0             -2.2514488      4.536775     
      7710   1.77321       -4.9105885      0             -2.2519841      4.4695774    
      7720   1.7621408     -4.8934201      0             -2.2514121      4.5305633    
      7730   1.7829966     -4.9252215      0             -2.2519439      4.4123168    
      7740   1.7643207     -4.8969915      0             -2.251715       4.5280972    
      7750   1.75792       -4.8866891      0             -2.2510094      4.6013837    
      7760   1.7564333     -4.8846399      0             -2.2511892      4.6032592    
      7770   1.797548      -4.9470533      0             -2.2519586      4.3585881    
      7780   1.7995858     -4.9498041      0             -2.2516541      4.2918239    
      7790   1.8286417     -4.9933907      0             -2.2516766      4.1457025    
      7800   1.7769514     -4.9161054      0             -2.2518915      4.4272106    
      7810   1.7681775     -4.9033093      0             -2.2522503      4.4709569    
      7820   1.7713661     -4.9083958      0             -2.2525561      4.4792069    
      7830   1.7480413     -4.8728709      0             -2.2520025      4.6111645    
      7840   1.76015       -4.891975       0             -2.2529517      4.5394763    
      7850   1.7638352     -4.8974087      0             -2.2528602      4.5001142    
      7860   1.8021138     -4.9540707      0             -2.2521303      4.2858165    
      7870   1.7875396     -4.932482       0             -2.2523931      4.3856217    
      7880   1.7461368     -4.8710765      0             -2.2530634      4.6079981    
      7890   1.7917648     -4.9395648      0             -2.253141       4.3643515    
      7900   1.7707876     -4.9079425      0             -2.25297        4.507121     
      7910   1.7515957     -4.8786799      0             -2.2524822      4.6372442    
      7920   1.7729473     -4.9099138      0             -2.2517033      4.5041073    
      7930   1.7872429     -4.9322941      0             -2.25265        4.4056775    
      7940   1.7770286     -4.9172784      0             -2.2529488      4.443541     
      7950   1.8017581     -4.9541289      0             -2.2527219      4.3133684    
      7960   1.777294      -4.9175264      0             -2.2527989      4.4531493    
      7970   1.768036      -4.9032202      0             -2.2523733      4.459679     
      7980   1.7603677     -4.8920241      0             -2.2526744      4.4858532    
      7990   1.7754817     -4.914737       0             -2.2527267      4.4370132    
      8000   1.7482952     -4.8739644      0             -2.2527153      4.5852107    
      8010   1.7939506     -4.9423821      0             -2.2526811      4.3745982    
      8020   1.7583042     -4.8884838      0             -2.2522281      4.6208702    
      8030   1.7232086     -4.8351052      0             -2.2514688      4.8024213    
      8040   1.7807126     -4.9220821      0             -2.2522291      4.4648813    
      8050   1.7909544     -4.9366782      0             -2.2514694      4.3811066    
      8060   1.7799353     -4.9206216      0             -2.2519339      4.4394528    
      8070   1.7648377     -4.8984645      0             -2.2524129      4.5412631    
      8080   1.7553866     -4.8842964      0             -2.252415       4.5893331    
      8090   1.8003286     -4.9524844      0             -2.2532207      4.3246204    
      8100   1.7744981     -4.9133587      0             -2.2528231      4.439194     
      8110   1.7932414     -4.9414803      0             -2.2528425      4.338399     
      8120   1.7554374     -4.8837186      0             -2.251761       4.5556884    
      8130   1.7693696     -4.9052955      0             -2.252449       4.4691472    
      8140   1.7684729     -4.9039742      0             -2.2524723      4.4529128    
      8150   1.7773331     -4.9177442      0             -2.252958       4.4134988    
      8160   1.7569815     -4.8872434      0             -2.2529708      4.5497731    
      8170   1.7835712     -4.9263671      0             -2.252228       4.4127884    
      8180   1.7889114     -4.9346339      0             -2.2524882      4.3380827    
      8190   1.8151933     -4.9741597      0             -2.252609       4.1617974    
      8200   1.8160877     -4.9746796      0             -2.251788       4.15791      
      8210   1.7988509     -4.9490446      0             -2.2519964      4.2823837    
      8220   1.7951515     -4.9435292      0             -2.2520275      4.333939     
      8230   1.8194612     -4.9804531      0             -2.2525036      4.1938443    
      8240   1.7644506     -4.8976746      0             -2.2522034      4.4905685    
      8250   1.7862965     -4.9306935      0             -2.2524684      4.3904382    
      8260   1.7840434     -4.9276175      0             -2.2527704      4.3841539    
      8270   1.7684969     -4.9047691      0             -2.2532312      4.4706903    
      8280   1.7707932     -4.9077995      0             -2.2528187      4.4163631    
      8290   1.7943859     -4.9430114      0             -2.2526576      4.2919687    
      8300   1.796733      -4.946698       0             -2.2528253      4.3352435    
      8310   1.7490749     -4.8750531      0             -2.252635       4.5998083    
      8320   1.7854013     -4.9295121      0             -2.2526291      4.4127318    
      8330   1.7789669     -4.9196488      0             -2.2524131      4.4283546    
      8340   1.8148914     -4.9743245      0             -2.2532266      4.1975213    
      8350   1.8055469     -4.9603982      0             -2.2533107      4.2483283    
      8360   1.7580671     -4.8886939      0             -2.2527936      4.5430299    
      8370   1.75801       -4.888071       0             -2.2522563      4.5370135    
      8380   1.7686141     -4.9046797      0             -2.2529661      4.4535094    
      8390   1.798794      -4.9499451      0             -2.2529821      4.314426     
      8400   1.7815734     -4.9238183      0             -2.2526747      4.4306785    
      8410   1.7916471     -4.9383614      0             -2.252114       4.3661369    
      8420   1.770368      -4.906123       0             -2.2517798      4.4860543    
      8430   1.7777827     -4.9176854      0             -2.2522251      4.4768558    
      8440   1.7844806     -4.9282701      0             -2.2527676      4.4214752    
      8450   1.7677385     -4.9029722      0             -2.2525714      4.5005179    
      8460   1.7474762     -4.8718286      0             -2.2518074      4.6357671    
      8470   1.751862      -4.8787719      0             -2.252175       4.6375297    
      8480   1.7734646     -4.9110852      0             -2.2520991      4.5126427    
      8490   1.7742764     -4.9121831      0             -2.2519798      4.5012963    
      8500   1.7918821     -4.9386653      0             -2.2520656      4.383892     
      8510   1.7725522     -4.9091192      0             -2.2515011      4.4841767    
      8520   1.7746369     -4.9129369      0             -2.2521931      4.45877      
      8530   1.7738791     -4.91123        0             -2.2516225      4.4174541    
      8540   1.8093026     -4.9649763      0             -2.2522578      4.2357412    
      8550   1.7489962     -4.8744848      0             -2.2521846      4.5855787    
      8560   1.752141      -4.8785527      0             -2.2515375      4.5896137    
      8570   1.7698724     -4.905191       0             -2.2515907      4.4928786    
      8580   1.8067255     -4.9607423      0             -2.2518876      4.3017442    
      8590   1.7655042     -4.8988744      0             -2.2518235      4.5236526    
      8600   1.7820268     -4.9236275      0             -2.2518039      4.4327262    
      8610   1.7870678     -4.9313388      0             -2.2519572      4.4170837    
      8620   1.7545552     -4.8821858      0             -2.2515509      4.6322085    
      8630   1.7549294     -4.8829689      0             -2.251773       4.6424524    
      8640   1.7338098     -4.8513258      0             -2.2517949      4.7458065    
      8650   1.7825388     -4.9240518      0             -2.2514606      4.4622645    
      8660   1.7684599     -4.9029563      0             -2.2514739      4.5207956    
      8670   1.7666449     -4.9007296      0             -2.2519685      4.5063789    
      8680   1.8086578     -4.9632592      0             -2.2515074      4.2710475    
      8690   1.7732949     -4.9104111      0             -2.2516795      4.4745502    
      8700   1.7569793     -4.8861776      0             -2.2519082      4.5810015    
      8710   1.7783884     -4.9180593      0             -2.2516909      4.4498764    
[...]
      9850   1.7786543     -4.9181736      0             -2.2514066      4.3690166    
      9860   1.7790238     -4.9192933      0             -2.2519722      4.4237158    
      9870   1.7635445     -4.8953423      0             -2.2512297      4.5123603    
      9880   1.7735042     -4.910155       0             -2.2511095      4.4377436    
      9890   1.7820258     -4.9231122      0             -2.2512902      4.4122852    
      9900   1.7631121     -4.8958862      0             -2.2524219      4.5168776    
      9910   1.7455302     -4.8693826      0             -2.2522791      4.6444327    
      9920   1.7671664     -4.9013836      0             -2.2518406      4.5445756    
      9930   1.7706235     -4.9065507      0             -2.2518243      4.5539369    
      9940   1.7406475     -4.861974       0             -2.2521912      4.7191504    
      9950   1.7934048     -4.9403425      0             -2.2514597      4.3896461    
      9960   1.7847103     -4.9278587      0             -2.2520118      4.417622     
      9970   1.7940929     -4.9419224      0             -2.2520079      4.3920573    
      9980   1.7968527     -4.9459639      0             -2.2519117      4.3668627    
      9990   1.8089982     -4.9649735      0             -2.2527113      4.2826982    
     10000   1.7300264     -4.8463858      0             -2.2525274      4.7329673    
     10010   1.749386      -4.8753732      0             -2.2524887      4.6333866    
     10020   1.769333      -4.9046183      0             -2.2518268      4.4910675    
     10030   1.7833989     -4.9266387      0             -2.252758       4.3822627    
     10040   1.7607188     -4.8921223      0             -2.2522463      4.5070388    
     10050   1.7799573     -4.9214533      0             -2.2527326      4.4324187    
     10060   1.7682019     -4.9039262      0             -2.2528306      4.5096108    
     10070   1.7710872     -4.9081824      0             -2.2527607      4.5030655    
     10080   1.7837607     -4.9265867      0             -2.2521636      4.4399786    
     10090   1.7710602     -4.9079259      0             -2.2525448      4.4877857    
     10100   1.7483655     -4.8738954      0             -2.2525408      4.614175     
     10110   1.7607541     -4.8916393      0             -2.2517102      4.5546901    
     10120   1.7878951     -4.9324566      0             -2.2518347      4.3753442    
     10130   1.7450276     -4.8688798      0             -2.2525298      4.6067951    
     10140   1.7868702     -4.9321         0             -2.2530147      4.4067767    
     10150   1.7932095     -4.941727       0             -2.2531371      4.3963637    
     10160   1.7574112     -4.8871202      0             -2.2522032      4.5792958    
     10170   1.7832927     -4.9256704      0             -2.2519489      4.4315391    
     10180   1.771404      -4.9077161      0             -2.2518196      4.5143727    
     10190   1.7518198     -4.8781943      0             -2.2516607      4.5970687    
     10200   1.7610954     -4.8921258      0             -2.2516852      4.5106664    
     10210   1.7553921     -4.8842108      0             -2.2523211      4.5625621    
     10220   1.7683441     -4.904932       0             -2.2536232      4.507982     
     10230   1.7459742     -4.8706872      0             -2.2529179      4.6519799    
     10240   1.7690885     -4.90509        0             -2.2526651      4.5469565    
     10250   1.7926162     -4.9395664      0             -2.2518661      4.3812058    
     10260   1.7906405     -4.9364227      0             -2.2516845      4.3602669    
     10270   1.7905219     -4.9361484      0             -2.2515879      4.3646669    
     10280   1.7747973     -4.9128087      0             -2.2518246      4.4519924    
     10290   1.754225      -4.8821832      0             -2.2520434      4.5317496    
     10300   1.7627401     -4.8957653      0             -2.2528587      4.4701296    
     10310   1.7858782     -4.9300078      0             -2.2524098      4.302738     
     10320   1.7724287     -4.909888       0             -2.252455       4.3609478    
     10330   1.8004463     -4.9516898      0             -2.2522495      4.2732633    
     10340   1.7741334     -4.912885       0             -2.2528961      4.4725533    
     10350   1.7653717     -4.899266       0             -2.2524138      4.5268114    
     10360   1.7826885     -4.9255878      0             -2.2527722      4.4148723    
     10370   1.7925278     -4.9403937      0             -2.2528258      4.322138     
     10380   1.7574054     -4.8878207      0             -2.2529124      4.485161     
     10390   1.801236      -4.9530821      0             -2.2524579      4.2939962    
     10400   1.7914667     -4.9383692      0             -2.2523922      4.3546486    
     10410   1.795266      -4.9436475      0             -2.2519742      4.3595766    
     10420   1.7723502     -4.9088746      0             -2.2515594      4.4938502    
     10430   1.7969125     -4.9458301      0             -2.2516882      4.3254945    
     10440   1.8064308     -4.9602697      0             -2.2518569      4.2551996    
     10450   1.7608907     -4.8919017      0             -2.251768       4.5039133    
     10460   1.759728      -4.889978       0             -2.2515875      4.5328408    
     10470   1.7821542     -4.9239446      0             -2.2519301      4.4083653    
     10480   1.7979442     -4.9476136      0             -2.2519248      4.2956584    
     10490   1.7736091     -4.9112599      0             -2.2520572      4.4079954    
     10500   1.7928651     -4.9403447      0             -2.2522712      4.3156128    
     10510   1.7840993     -4.9274593      0             -2.2525285      4.3636526    
     10520   1.7673463     -4.9022788      0             -2.252466       4.4821918    
     10530   1.7567157     -4.8865138      0             -2.2526396      4.5638277    
     10540   1.7698775     -4.9058862      0             -2.2522783      4.4922986    
     10550   1.7940993     -4.9423824      0             -2.2524584      4.3449766    
     10560   1.7650254     -4.8983542      0             -2.2520212      4.4828416    
     10570   1.7886271     -4.9345123      0             -2.2527928      4.3263005    
     10580   1.7690536     -4.9048171      0             -2.2524446      4.3822848    
     10590   1.7403384     -4.8616776      0             -2.2523583      4.5383329    
     10600   1.761248      -4.8933997      0             -2.2527301      4.4508025    
     10610   1.7727226     -4.9106433      0             -2.2527698      4.3925209    
     10620   1.7915272     -4.9392268      0             -2.2531593      4.3110288    
     10630   1.7828023     -4.9257469      0             -2.2527607      4.3679506    
     10640   1.7951113     -4.9435221      0             -2.2520807      4.3261332    
     10650   1.7866039     -4.9301462      0             -2.2514602      4.4089931    
     10660   1.7511884     -4.8774953      0             -2.2519084      4.6337049    
     10670   1.7795889     -4.9204679      0             -2.2522995      4.4740808    
     10680   1.7595781     -4.8897633      0             -2.2515975      4.5766397    
     10690   1.7853117     -4.9283616      0             -2.2516131      4.4305451    
     10700   1.7760625     -4.9143257      0             -2.2514446      4.5198332    
     10710   1.7555366     -4.8825824      0             -2.2504761      4.6542018    
     10720   1.7629848     -4.8946756      0             -2.251402       4.6094278    
     10730   1.7604875     -4.8916772      0             -2.252148       4.5929407    
     10740   1.7938959     -4.9427953      0             -2.2531762      4.4231606    
     10750   1.7574389     -4.8882484      0             -2.2532899      4.5810567    
     10760   1.786969      -4.9318805      0             -2.2526471      4.3940643    
     10770   1.7617177     -4.894364       0             -2.2529902      4.5333663    
     10780   1.7920698     -4.9399224      0             -2.2530413      4.3492652    
     10790   1.757158      -4.8871556      0             -2.2526183      4.5437221    
     10800   1.7836089     -4.9271903      0             -2.2529947      4.4244765    
     10810   1.7493547     -4.8754665      0             -2.2526288      4.5937475    
     10820   1.7794898     -4.920781       0             -2.2527613      4.4569832    
     10830   1.7592158     -4.8904785      0             -2.2528559      4.5335822    
     10840   1.7973325     -4.9478831      0             -2.2531115      4.3015443    
     10850   1.7777063     -4.9181576      0             -2.2528119      4.3855121    
     10860   1.7747097     -4.9127455      0             -2.2518927      4.4147479    
     10870   1.7787638     -4.9186591      0             -2.2517278      4.3851111    
     10880   1.774084      -4.9110829      0             -2.251168       4.3858592    
     10890   1.784124      -4.9266826      0             -2.2517148      4.3246674    
     10900   1.7797308     -4.920679       0             -2.2522979      4.3590721    
     10910   1.7535625     -4.8813994      0             -2.252253       4.5232819    
     10920   1.7648624     -4.8986792      0             -2.2525905      4.4811223    
     10930   1.7771125     -4.9164535      0             -2.2519981      4.4054435    
     10940   1.7900135     -4.9357802      0             -2.251982       4.343019     
     10950   1.7656836     -4.8990287      0             -2.2517089      4.477972     
     10960   1.7429972     -4.8652609      0             -2.2519552      4.6351026    
     10970   1.7580895     -4.888002       0             -2.2520681      4.5594068    
     10980   1.7886871     -4.9340781      0             -2.2522686      4.3885146    
     10990   1.7622444     -4.894418       0             -2.2522547      4.5117201    
     11000   1.7946778     -4.9440562      0             -2.2532649      4.3449954    
     11010   1.8070667     -4.9615619      0             -2.2521957      4.2966725    
     11020   1.788083      -4.9323858      0             -2.2514822      4.3986866    
     11030   1.7620039     -4.8939727      0             -2.2521698      4.5303295    
     11040   1.7601095     -4.891045       0             -2.2520824      4.5177137    
     11050   1.7993136     -4.949561       0             -2.251819       4.2748523    
     11060   1.7996271     -4.9504012      0             -2.2521892      4.248514     
     11070   1.7780709     -4.9174311      0             -2.2515387      4.4062688    
     11080   1.7901409     -4.9356307      0             -2.2516415      4.3692218    
     11090   1.7668874     -4.9009267      0             -2.2518018      4.470552     
     11100   1.8026898     -4.9554823      0             -2.2526784      4.3008329    
     11110   1.762764      -4.8945663      0             -2.2516239      4.5455008    
     11120   1.7305897     -4.8465968      0             -2.2518938      4.7136667    
     11130   1.8173101     -4.9767917      0             -2.2520673      4.2451566    
     11140   1.7739527     -4.91099        0             -2.2512721      4.4599801    
     11150   1.7465735     -4.8698397      0             -2.2511719      4.6024744    
     11160   1.774434      -4.9116134      0             -2.2511739      4.4737893    
     11170   1.7804279     -4.9215702      0             -2.2521439      4.4350212    
     11180   1.7887681     -4.9340305      0             -2.2520996      4.3546283    
     11190   1.7652955     -4.8988371      0             -2.2520992      4.4920836    
     11200   1.7544151     -4.8825052      0             -2.2520805      4.5668435    
     11210   1.7832131     -4.9254834      0             -2.2518813      4.4203415    
     11220   1.7861582     -4.9298573      0             -2.2518395      4.4040462    
     11230   1.7708766     -4.9075391      0             -2.2524333      4.4896187    
     11240   1.7782412     -4.9182938      0             -2.2521461      4.4151181    
     11250   1.7617003     -4.8928183      0             -2.2514706      4.4643379    
     11260   1.7715094     -4.907904       0             -2.2518494      4.4245317    
     11270   1.7870756     -4.9311597      0             -2.2517665      4.3499711    
     11280   1.762269      -4.8938493      0             -2.251649       4.4711045    
     11290   1.7731983     -4.9106828      0             -2.2520961      4.404688     
     11300   1.7917604     -4.9392667      0             -2.2528493      4.3033964    
     11310   1.7667162     -4.9017004      0             -2.2528324      4.4899182    
     11320   1.754632      -4.8829562      0             -2.2522062      4.5743787    
     11330   1.7986414     -4.9488489      0             -2.2521148      4.3396813    
     11340   1.7520857     -4.8791531      0             -2.2522207      4.5709635    
     11350   1.7657901     -4.8995637      0             -2.2520841      4.4970853    
     11360   1.7849765     -4.9284842      0             -2.2522382      4.3978965    
     11370   1.7802342     -4.9205683      0             -2.2514324      4.4542838    
     11380   1.7839516     -4.9255913      0             -2.2508818      4.4272581    
     11390   1.7642072     -4.8962713      0             -2.251165       4.521157     
     11400   1.7595384     -4.8900453      0             -2.251939       4.5265527    
     11410   1.7888908     -4.9336271      0             -2.2515123      4.3377812    
     11420   1.7661653     -4.9001413      0             -2.2520992      4.4584467    
     11430   1.7667576     -4.9017747      0             -2.2528445      4.4621262    
     11440   1.7446949     -4.8679025      0             -2.2520513      4.5827933    
     11450   1.7943114     -4.9429167      0             -2.2526746      4.3204564    
     11460   1.7937606     -4.9417035      0             -2.2522873      4.3325545    
     11470   1.7875149     -4.9320982      0             -2.2520462      4.3937639    
     11480   1.756467      -4.8845353      0             -2.2510341      4.5995193    
     11490   1.7499377     -4.8757586      0             -2.2520467      4.6283443    
     11500   1.7725147     -4.9096365      0             -2.2520747      4.5016072    
     11510   1.7814272     -4.9234182      0             -2.2524937      4.4309302    
     11520   1.7782331     -4.9181688      0             -2.2520332      4.4334572    
     11530   1.7942709     -4.9431306      0             -2.2529493      4.3573977    
     11540   1.7846609     -4.9289467      0             -2.2531738      4.4295066    
     11550   1.7505181     -4.8774229      0             -2.252841       4.6026788    
     11560   1.7674843     -4.9020254      0             -2.2520057      4.4800995    
     11570   1.8039119     -4.9580478      0             -2.2534115      4.2585609    
     11580   1.7766516     -4.9165736      0             -2.2528091      4.4270516    
     11590   1.8004006     -4.9521241      0             -2.2527524      4.3167475    
     11600   1.7812237     -4.9228335      0             -2.252214       4.4228907    
     11610   1.7832781     -4.9247919      0             -2.2510922      4.3991355    
     11620   1.7762631     -4.9157656      0             -2.2525838      4.4227168    
     11630   1.7903894     -4.9370357      0             -2.2526739      4.3568753    
     11640   1.7490705     -4.8743299      0             -2.2519183      4.5911104    
     11650   1.7821565     -4.923746       0             -2.251728       4.3844726    
     11660   1.784054      -4.9277267      0             -2.2528637      4.377058     
     11670   1.7764509     -4.9161953      0             -2.2527318      4.4489878    
     11680   1.7539301     -4.8818698      0             -2.2521722      4.5725775    
     11690   1.7704743     -4.9072718      0             -2.2527692      4.4901326    
     11700   1.779065      -4.9202326      0             -2.2528498      4.4092612    
     11710   1.767275      -4.9013098      0             -2.2516039      4.4644426    
     11720   1.7564073     -4.884698       0             -2.2512863      4.5224462    
     11730   1.7793244     -4.9197513      0             -2.2519795      4.3831504    
     11740   1.7744601     -4.911791       0             -2.2513124      4.4304207    
     11750   1.7990338     -4.948856       0             -2.2515337      4.3162376    
     11760   1.7694041     -4.9043183      0             -2.2514203      4.4734354    
     11770   1.7836438     -4.9262022      0             -2.2519543      4.3873342    
     11780   1.7880612     -4.9320712      0             -2.2512003      4.3474271    
     11790   1.771545      -4.9074252      0             -2.2513172      4.4155188    
     11800   1.7913859     -4.9385509      0             -2.2526951      4.3067104    
     11810   1.7596394     -4.8906014      0             -2.2523437      4.4724551    
     11820   1.8138337     -4.9721926      0             -2.2526805      4.2060836    
     11830   1.7716801     -4.9085693      0             -2.2522589      4.448088     
     11840   1.8027753     -4.9550376      0             -2.2521055      4.2891908    
     11850   1.8087903     -4.9638361      0             -2.2518857      4.2693746    
     11860   1.7793734     -4.9192377      0             -2.2513924      4.4256502    
     11870   1.770751      -4.9064646      0             -2.2515471      4.465668     
     11880   1.765794      -4.8990906      0             -2.2516052      4.4993628    
     11890   1.7986021     -4.9486428      0             -2.2519676      4.3345606    
     11900   1.8219668     -4.9835943      0             -2.251888       4.2027478    
     11910   1.7933258     -4.9416397      0             -2.2528754      4.3399288    
     11920   1.7621054     -4.8939696      0             -2.2520145      4.5458764    
     11930   1.7947147     -4.9437911      0             -2.2529443      4.4020475    
     11940   1.7570887     -4.8871038      0             -2.2526705      4.5771566    
     11950   1.785969      -4.9303847      0             -2.2526506      4.3903849    
     11960   1.8115892     -4.9684184      0             -2.2522715      4.2143585    
     11970   1.7768239     -4.9158924      0             -2.2518697      4.372723     
     11980   1.7844956     -4.9274231      0             -2.2518981      4.3157741    
     11990   1.7918238     -4.9390436      0             -2.2525313      4.2793806    
     12000   1.7642912     -4.8973095      0             -2.2520772      4.4704384    
Loop time of 15.5485 on 1 procs for 10000 steps with 2197 atoms

Performance: 277840.834 tau/day, 643.150 timesteps/s, 1.413 Matom-step/s
99.9% CPU use with 1 MPI tasks x no OpenMP threads

MPI task timing breakdown:
Section |  min time  |  avg time  |  max time  |%varavg| %total
---------------------------------------------------------------
Pair    | 11.353     | 11.353     | 11.353     |   0.0 | 73.02
Neigh   | 3.6583     | 3.6583     | 3.6583     |   0.0 | 23.53
Comm    | 0.21563    | 0.21563    | 0.21563    |   0.0 |  1.39
Output  | 0.0067713  | 0.0067713  | 0.0067713  |   0.0 |  0.04
Modify  | 0.24117    | 0.24117    | 0.24117    |   0.0 |  1.55
Other   |            | 0.0736     |            |       |  0.47

Nlocal:           2197 ave        2197 max        2197 min
Histogram: 1 0 0 0 0 0 0 0 0 0
Nghost:           3859 ave        3859 max        3859 min
Histogram: 1 0 0 0 0 0 0 0 0 0
Neighs:          79138 ave       79138 max       79138 min
Histogram: 1 0 0 0 0 0 0 0 0 0

Total # of neighbors = 79138
Ave neighs/atom = 36.020938
Neighbor list builds = 1734
Dangerous builds = 0
Total wall time: 0:00:18
