LAMMPS (3 Aug 2023 - Development - )
#-------------------------------------------------------------------------------
# Example LAMMPS script for running a Lennard-Jones molecular dynamics
# simulation at constant volume with the NVE ensemble. The system is
# equilibrated with the NVT ensemble and then time-integrated with NVE.
#-------------------------------------------------------------------------------

#===============================================================================
# Setup the simulation
#===============================================================================

#-----------------------------------------
#  define units for parameters and output
#-----------------------------------------
units       lj

#---------------------------------------
#  specify periodic boundary conditions
#---------------------------------------
boundary p p p

# define atom_style
# full covers everything
# atom_style full

#----------------------------------------------------------------
#  define simulation volume
#  If I want N = 512 atoms
#  and I want a density of rho = 0.5 atoms/lj-sigma^3
#  Then I can determine the size of a cube by
#  size = (N/rho)^(1/3)
#----------------------------------------------------------------
variable side      equal 14
region      boxid block 0.0 ${side} 0.0 ${side} 0.0 ${side}
region      boxid block 0.0 14 0.0 ${side} 0.0 ${side}
region      boxid block 0.0 14 0.0 14 0.0 ${side}
region      boxid block 0.0 14 0.0 14 0.0 14
create_box  1 boxid
Created orthogonal box = (0 0 0) to (14 14 14)
  1 by 1 by 1 MPI processor grid

#-------------------------------------------------------------------------------
#  specify initial positions of atoms
#  sc = simple cubic
#  0.5 = density in lj units
#-------------------------------------------------------------------------------
lattice     sc 0.75
Lattice spacing in x,y,z = 1.1006424 1.1006424 1.1006424

#-------------------------------------------------------------------------------
#  place atoms of type 1 in boxid
#-------------------------------------------------------------------------------
create_atoms    1 box
Created 2197 atoms
  using lattice units in orthogonal box = (0 0 0) to (14 14 14)
  create_atoms CPU = 0.000 seconds

#-------------------------------------------------------------------------------
#   define mass of atom type 1 (m/m =1 in reduced units)
#-------------------------------------------------------------------------------
mass        1 1.0

#-------------------------------------------------------------------------------
#  specify initial velocity of atoms
#  group = all
#  reduced temperature is T = 1.0 = lj-eps/kb
#  seed for random number generator
#  distribution is gaussian (e.g. Maxwell-Boltzmann)
#-------------------------------------------------------------------------------
velocity    all create 1.25 87287 dist gaussian

#-------------------------------------------------------------------------------
#  specify interaction potential
#  pairwise interaction via the Lennard-Jones potential with a cut-off at 2.5 lj-sigma
#-------------------------------------------------------------------------------
pair_style  lj/cut 2.5

#-------------------------------------------------------------------------------
#  specify parameters between atoms of type 1 with an atom of type 1
#  epsilon = 1.0, sigma = 1.0, cutoff = 2.5 in reduced units
#-------------------------------------------------------------------------------
pair_coeff  1 1 1.0 1.0 2.5

#-------------------------------------------------------------------------------
# add long-range tail correction
#-------------------------------------------------------------------------------
pair_modify tail yes

#-------------------------------------------------------------------------------
#  specify parameters for neighbor list
#  rnbr = rcut + 0.3
#-------------------------------------------------------------------------------
neighbor    0.3 bin

#-------------------------------------------------------------------------------
#  specify thermodynamic properties to be output
#  pe = potential energy
#  ke = kinetic energy
#  etotal = pe + ke
#  temp = temperature
#  press = pressure
#  density = number density
#  output every thousand steps
#  norm = normalize by # of atoms (yes or no)
#-------------------------------------------------------------------------------
#thermo_style custom step pe ke etotal temp press

#-------------------------------------------------------------------------------
# report instantaneous thermo values every 10 steps
#-------------------------------------------------------------------------------
thermo 10

#-------------------------------------------------------------------------------
# normalize thermo properties by number of atoms (yes or no)
#-------------------------------------------------------------------------------
thermo_modify norm yes

#-------------------
#  define time step
#-------------------
timestep 0.005

#===============================================================================
# System equilibration
#===============================================================================

#------------------------------------------------
#  specify NVE ensemble for all atoms and ID = 1
#------------------------------------------------
fix     1 all nve

#--------------------------------------------------------------
# run 1000 steps in the NVE ensemble to equilibrate positions
#--------------------------------------------------------------
run 1000
Generated 0 of 0 mixed pair_coeff terms from geometric mixing rule
Neighbor list info ...
  update: every = 1 steps, delay = 0 steps, check = yes
  max neighbors/atom: 2000, page size: 100000
  master list distance cutoff = 2.8
  ghost atom cutoff = 2.8
  binsize = 1.4, bins = 10 10 10
  1 neighbor lists, perpetual/occasional/extra = 1 0 0
  (1) pair lj/cut, perpetual
      attributes: half, newton on
      pair build: half/bin/atomonly/newton
      stencil: half/bin/3d
      bin: standard
Per MPI rank memory allocation (min/avg/max) = 3.241 | 3.241 | 3.241 Mbytes
   Step          Temp          E_pair         E_mol          TotEng         Press     
         0   1.25           5.5678596      0              7.4420061      40.073021    
        10   5.0103947     -0.3878444      0              7.1243267      24.012339    
        20   5.7756137     -1.5526162      0              7.1068611      21.080111    
        30   6.2801369     -2.3052398      0              7.1106778      18.869382    
        40   6.4165934     -2.5076371      0              7.1128721      18.472939    
        50   6.296546      -2.3270095      0              7.1135105      19.34761     
        60   6.1985316     -2.1841133      0              7.109452       19.985769    
        70   5.9321165     -1.7869248      0              7.1071998      21.589856    
        80   5.9097189     -1.7588544      0              7.1016892      21.867044    
        90   5.9109164     -1.7542051      0              7.1081338      21.872446    
       100   6.0852313     -2.018189       0              7.1055033      20.914616    
       110   6.0987608     -2.0375797      0              7.1063976      20.770425    
       120   6.2337916     -2.2351702      0              7.1112611      19.832033    
       130   6.3370013     -2.3843364      0              7.116839       19.045304    
       140   6.3237657     -2.3641805      0              7.1171505      18.975754    
       150   6.4311906     -2.5244047      0              7.1179903      18.242709    
       160   6.4390072     -2.5341157      0              7.1199988      18.161092    
       170   6.3721992     -2.4336999      0              7.1202482      18.415013    
       180   6.4385288     -2.5311641      0              7.1222332      17.957351    
       190   6.411442      -2.4925839      0              7.1202018      18.140967    
       200   6.2102883     -2.1904897      0              7.1207026      19.201753    
       210   6.1790796     -2.1487452      0              7.1156554      19.375382    
       220   6.211595      -2.1959917      0              7.1171598      19.214803    
       230   6.1438542     -2.097872       0              7.1137146      19.544673    
       240   6.1399485     -2.0890228      0              7.1167079      19.559537    
       250   6.2840422     -2.3046631      0              7.1171098      18.74042     
       260   6.4117383     -2.4922991      0              7.1209307      18.0662      
       270   6.3151274     -2.3484205      0              7.119959       18.570224    
       280   6.3710753     -2.4297394      0              7.1225237      18.271804    
       290   6.2713608     -2.2802812      0              7.1224783      18.885883    
       300   6.2971411     -2.3216208      0              7.1197915      18.786878    
       310   6.2799225     -2.2962705      0              7.1193257      18.937099    
       320   6.1817737     -2.1446352      0              7.1238047      19.414563    
       330   6.3098628     -2.3433776      0              7.1171086      18.828805    
       340   6.2173287     -2.2017572      0              7.119991       19.445755    
       350   6.2314769     -2.2284305      0              7.1145303      19.376896    
       360   6.3562803     -2.4131823      0              7.1168984      18.695919    
       370   6.2092436     -2.1908078      0              7.1188183      19.386533    
       380   6.3004598     -2.3293852      0              7.1170028      18.948692    
       390   6.3109519     -2.3435609      0              7.1185582      18.841311    
       400   6.257923      -2.2634105      0              7.1192014      19.069245    
       410   6.3104378     -2.342851       0              7.1184973      18.787962    
       420   6.256307      -2.2621575      0              7.1180315      18.955416    
       430   6.367322      -2.4278464      0              7.1187894      18.406319    
       440   6.1657723     -2.1266168      0              7.1178319      19.4023      
       450   6.2566792     -2.2611826      0              7.1195645      18.880162    
       460   6.3478938     -2.397782       0              7.1197246      18.415677    
       470   6.2351503     -2.2285878      0              7.1198806      19.035874    
       480   6.2198032     -2.2069178      0              7.1185405      19.158376    
       490   6.2525291     -2.2543236      0              7.1202011      18.939322    
       500   6.2269471     -2.216125       0              7.1200441      19.082508    
       510   6.2420276     -2.2399805      0              7.1187991      19.061776    
       520   6.1621538     -2.1160766      0              7.1229468      19.446541    
       530   6.2425302     -2.2413302      0              7.118203       18.982764    
       540   6.3822227     -2.4470864      0              7.1218902      18.296536    
       550   6.2973924     -2.3225551      0              7.119234       18.731137    
       560   6.2747889     -2.2864708      0              7.1214284      18.842559    
       570   6.2114478     -2.1909765      0              7.1219544      19.175822    
       580   6.2694629     -2.2762926      0              7.1236214      18.87408     
       590   6.1707445     -2.1303057      0              7.1215979      19.341156    
       600   6.2161137     -2.1997016      0              7.1202249      19.106283    
       610   6.1487378     -2.0998214      0              7.1190873      19.457274    
       620   6.2036704     -2.1815158      0              7.1197543      19.180618    
       630   6.0804146     -1.9918214      0              7.1246491      19.794347    
       640   6.2748268     -2.2869498      0              7.1210063      18.888753    
       650   6.3011715     -2.3274064      0              7.1200487      18.777563    
       660   6.2226898     -2.2086543      0              7.1211319      19.127102    
       670   6.2867876     -2.3034725      0              7.1224166      18.766271    
       680   6.2251483     -2.2137093      0              7.1197629      19.119215    
       690   6.2418771     -2.2395088      0              7.1190452      18.996528    
       700   6.2803731     -2.2972729      0              7.1189988      18.780054    
       710   6.2380744     -2.232933       0              7.1199195      19.01405     
       720   6.3266367     -2.3651402      0              7.1204954      18.58644     
       730   6.3275194     -2.3675517      0              7.1194073      18.59224     
       740   6.2405225     -2.236769       0              7.119754       19.046782    
       750   6.3269548     -2.3669531      0              7.1191594      18.580791    
       760   6.1532211     -2.1056343      0              7.1199962      19.434725    
       770   6.3456281     -2.3932766      0              7.1208332      18.553372    
       780   6.2775273     -2.2928956      0              7.1191093      18.870096    
       790   6.3093685     -2.3407958      0              7.1189493      18.700589    
       800   6.2290748     -2.2203735      0              7.1189858      18.985496    
       810   6.2766261     -2.2904871      0              7.1201667      18.783248    
       820   6.2343715     -2.2259456      0              7.1213551      19.018704    
       830   6.2140835     -2.1949902      0              7.1218924      19.106325    
       840   6.128869      -2.0660609      0              7.1230581      19.533097    
       850   6.199876      -2.1743449      0              7.1212362      19.129108    
       860   6.2945024     -2.315098       0              7.122358       18.696661    
       870   6.2545381     -2.2597724      0              7.1177644      18.904753    
       880   6.3327653     -2.3740581      0              7.1207661      18.493728    
       890   6.1783163     -2.1449923      0              7.1182639      19.267364    
       900   6.2825955     -2.299837       0              7.1197668      18.855681    
       910   6.3420583     -2.3877972      0              7.1209603      18.545785    
       920   6.3419033     -2.3872876      0              7.1212375      18.450745    
       930   6.2698087     -2.2789651      0              7.1214673      18.795507    
       940   6.2256957     -2.211579       0              7.1227139      18.989456    
       950   6.2889951     -2.310295       0              7.1189038      18.637676    
       960   6.2759547     -2.2890016      0              7.1206456      18.78342     
       970   6.3388009     -2.3828962      0              7.1209773      18.476338    
       980   6.3869806     -2.4530565      0              7.1230536      18.311364    
       990   6.3203747     -2.3597582      0              7.1164886      18.677682    
      1000   6.2203899     -2.2044689      0              7.121869       19.206139    
Loop time of 1.66157 on 1 procs for 1000 steps with 2197 atoms

Performance: 259994.937 tau/day, 601.840 timesteps/s, 1.322 Matom-step/s
100.0% CPU use with 1 MPI tasks x no OpenMP threads

MPI task timing breakdown:
Section |  min time  |  avg time  |  max time  |%varavg| %total
---------------------------------------------------------------
Pair    | 0.85476    | 0.85476    | 0.85476    |   0.0 | 51.44
Neigh   | 0.74734    | 0.74734    | 0.74734    |   0.0 | 44.98
Comm    | 0.034082   | 0.034082   | 0.034082   |   0.0 |  2.05
Output  | 0.0010321  | 0.0010321  | 0.0010321  |   0.0 |  0.06
Modify  | 0.013448   | 0.013448   | 0.013448   |   0.0 |  0.81
Other   |            | 0.0109     |            |       |  0.66

Nlocal:           2197 ave        2197 max        2197 min
Histogram: 1 0 0 0 0 0 0 0 0 0
Nghost:           3882 ave        3882 max        3882 min
Histogram: 1 0 0 0 0 0 0 0 0 0
Neighs:          79728 ave       79728 max       79728 min
Histogram: 1 0 0 0 0 0 0 0 0 0

Total # of neighbors = 79728
Ave neighs/atom = 36.289486
Neighbor list builds = 327
Dangerous builds = 0

#------------------------------------------------
#  stop fix (ID 1) to change the thermostat
#------------------------------------------------
unfix 1

#--------------------------------------------------------------
# Specify NVT ensemble to set a desired temperature and ID = 2
#--------------------------------------------------------------
#  ensemble = nvt (Nose-Hoover)
#  temp = temperature
#  initial temperature = 1.0
#  final temperature = 1.0
#  thermostat controller gain = 0.1 (units of time, bigger is less tight control)
#--------------------------------------------------------------
fix     2 all nvt temp 1.25 1.25 0.1

#--------------------------------------------------------------
# run 1000 steps in the NVT ensemble to equilibrate thermostat
#--------------------------------------------------------------
run     1000
Generated 0 of 0 mixed pair_coeff terms from geometric mixing rule
Per MPI rank memory allocation (min/avg/max) = 3.244 | 3.244 | 3.244 Mbytes
   Step          Temp          E_pair         E_mol          TotEng         Press     
      1000   6.2203899     -2.2044689      0              7.121869       19.206139    
      1010   5.0559688     -2.6416666      0              4.9388347      16.561454    
      1020   3.9636237     -3.2481341      0              2.6945953      13.290049    
      1030   3.1441019     -3.7404157      0              0.97359054     10.590771    
      1040   2.5571417     -4.1386262      0             -0.30465953     8.4544319    
      1050   2.0970062     -4.3936535      0             -1.249576       6.9722235    
      1060   1.833425      -4.7195783      0             -1.9706926      5.3912502    
      1070   1.5912456     -4.9106717      0             -2.5248897      4.3530942    
      1080   1.4119734     -5.0592748      0             -2.9422787      3.5504505    
      1090   1.3080153     -5.2091025      0             -3.2479726      2.820705     
      1100   1.1918375     -5.2572826      0             -3.4703401      2.4875111    
      1110   1.1607588     -5.3468427      0             -3.6064971      2.0526878    
      1120   1.142799      -5.3841615      0             -3.6707432      1.852838     
      1130   1.1444666     -5.3749511      0             -3.6590326      1.886772     
      1140   1.2400762     -5.4405459      0             -3.5812782      1.6804454    
      1150   1.2500533     -5.3627057      0             -3.4884793      2.0063482    
      1160   1.2990739     -5.3511972      0             -3.4034733      2.0990592    
      1170   1.3029528     -5.3038062      0             -3.3502666      2.3086323    
      1180   1.2798771     -5.2510588      0             -3.3321169      2.5225852    
      1190   1.2994745     -5.2937536      0             -3.3454291      2.3638219    
      1200   1.2859363     -5.3224338      0             -3.3944074      2.2479927    
      1210   1.222519      -5.2963658      0             -3.463422       2.3021773    
      1220   1.2288568     -5.3555284      0             -3.5130821      2.0414661    
      1230   1.2224369     -5.3775527      0             -3.544732       1.9189878    
      1240   1.209422      -5.3699301      0             -3.5566228      1.9337219    
      1250   1.2291414     -5.3835682      0             -3.5406953      1.9127864    
      1260   1.219971      -5.3353192      0             -3.5061957      2.1322991    
      1270   1.2519786     -5.332162       0             -3.4550489      2.1914379    
      1280   1.2858744     -5.3330242      0             -3.4050904      2.2198074    
      1290   1.2853464     -5.3080842      0             -3.3809421      2.3169523    
      1300   1.2781086     -5.2948732      0             -3.3785828      2.3546034    
      1310   1.2740281     -5.3064367      0             -3.3962644      2.2958538    
      1320   1.2210953     -5.2570433      0             -3.426234       2.4563481    
      1330   1.2463915     -5.3110395      0             -3.4423033      2.2516423    
      1340   1.2445506     -5.3212007      0             -3.4552245      2.2009251    
      1350   1.240507      -5.3234778      0             -3.4635644      2.1971255    
      1360   1.2404644     -5.3232127      0             -3.463363       2.1889727    
      1370   1.2430047     -5.3172722      0             -3.4536137      2.1976642    
      1380   1.2590918     -5.3312465      0             -3.4434684      2.1696674    
      1390   1.2586593     -5.3240598      0             -3.4369302      2.2166854    
      1400   1.2407507     -5.2933262      0             -3.4330473      2.3235762    
      1410   1.2529312     -5.3062772      0             -3.4277358      2.3144868    
      1420   1.2520491     -5.2982133      0             -3.4209945      2.3353421    
      1430   1.2803053     -5.337932       0             -3.4183481      2.1939826    
      1440   1.257681      -5.3223006      0             -3.4366377      2.2610615    
      1450   1.238325      -5.3192608      0             -3.4626187      2.2624415    
      1460   1.2410516     -5.3409891      0             -3.480259       2.1668586    
      1470   1.2215513     -5.3176874      0             -3.4861944      2.2421261    
      1480   1.2280492     -5.3150326      0             -3.4737973      2.2361815    
      1490   1.2650228     -5.3474913      0             -3.4508208      2.1165253    
      1500   1.2662257     -5.3321874      0             -3.4337134      2.1643161    
      1510   1.245829      -5.2945466      0             -3.4266537      2.2860968    
      1520   1.2688053     -5.3268974      0             -3.4245557      2.1763287    
      1530   1.2586189     -5.3213656      0             -3.4342966      2.2211607    
      1540   1.2456846     -5.3169258      0             -3.4492495      2.2427722    
      1550   1.2416242     -5.3233387      0             -3.4617501      2.1973101    
      1560   1.2560894     -5.3520506      0             -3.4687741      2.0786924    
      1570   1.2178878     -5.2982314      0             -3.4722313      2.2503323    
      1580   1.2686086     -5.3611169      0             -3.4590701      2.0222247    
      1590   1.2560061     -5.3375043      0             -3.4543527      2.1016489    
      1600   1.2378524     -5.3112096      0             -3.4552762      2.2085089    
      1610   1.2507549     -5.3231361      0             -3.4478578      2.1848419    
      1620   1.2532363     -5.3177148      0             -3.4387159      2.2387877    
      1630   1.2623807     -5.3309487      0             -3.4382395      2.2265808    
      1640   1.2516983     -5.3229187      0             -3.4462259      2.24812      
      1650   1.2424422     -5.3161347      0             -3.4533197      2.2601399    
      1660   1.2508595     -5.3327654      0             -3.4573303      2.2014857    
      1670   1.2438653     -5.324801       0             -3.4598523      2.2414037    
      1680   1.2525972     -5.335559       0             -3.4575184      2.2219499    
      1690   1.2346504     -5.3042405      0             -3.4531079      2.3316653    
      1700   1.2700439     -5.3436085      0             -3.4394097      2.1633444    
      1710   1.2736627     -5.3471809      0             -3.4375565      2.1121905    
      1720   1.2431502     -5.3178985      0             -3.4540219      2.2087722    
      1730   1.2448575     -5.3338697      0             -3.4674334      2.1364867    
      1740   1.2510006     -5.3534862      0             -3.4778394      2.0376756    
      1750   1.2577549     -5.3752393      0             -3.4894656      1.9581946    
      1760   1.2068191     -5.3104464      0             -3.5010418      2.1891956    
      1770   1.225254      -5.3247841      0             -3.4877396      2.1686487    
      1780   1.2662632     -5.3540518      0             -3.4555216      2.0749706    
      1790   1.2593762     -5.3158958      0             -3.4276913      2.2157869    
      1800   1.3048349     -5.3686464      0             -3.4122849      2.0588495    
      1810   1.2599411     -5.3155791      0             -3.4265276      2.2729135    
      1820   1.2359827     -5.3014981      0             -3.4483679      2.3264416    
      1830   1.2466003     -5.3309508      0             -3.4619014      2.1994435    
      1840   1.2493652     -5.3463533      0             -3.4731585      2.1094282    
      1850   1.2277702     -5.3200884      0             -3.4792713      2.210843     
      1860   1.2329147     -5.3209654      0             -3.4724352      2.2135167    
      1870   1.2516864     -5.3330401      0             -3.456365       2.1952091    
      1880   1.2510913     -5.3142334      0             -3.4384507      2.2628312    
      1890   1.2631866     -5.3176942      0             -3.4237767      2.2249863    
      1900   1.2586251     -5.3030549      0             -3.4159765      2.2673203    
      1910   1.2579105     -5.2960862      0             -3.4100793      2.2789891    
      1920   1.2654723     -5.3110718      0             -3.4137274      2.2320919    
      1930   1.2636973     -5.3247631      0             -3.4300799      2.1966807    
      1940   1.2225275     -5.2813348      0             -3.4483782      2.3763892    
      1950   1.250357      -5.3287592      0             -3.4540773      2.224944     
      1960   1.2437221     -5.3217891      0             -3.4570551      2.2373747    
      1970   1.2469518     -5.3249574      0             -3.455381       2.1993763    
      1980   1.2369922     -5.301289       0             -3.4466451      2.2768084    
      1990   1.2736205     -5.3434131      0             -3.4338518      2.1380977    
      2000   1.2734001     -5.3481918      0             -3.4389612      2.1308516    
Loop time of 1.18173 on 1 procs for 1000 steps with 2197 atoms

Performance: 365565.818 tau/day, 846.217 timesteps/s, 1.859 Matom-step/s
100.0% CPU use with 1 MPI tasks x no OpenMP threads

MPI task timing breakdown:
Section |  min time  |  avg time  |  max time  |%varavg| %total
---------------------------------------------------------------
Pair    | 0.78936    | 0.78936    | 0.78936    |   0.0 | 66.80
Neigh   | 0.33516    | 0.33516    | 0.33516    |   0.0 | 28.36
Comm    | 0.022398   | 0.022398   | 0.022398   |   0.0 |  1.90
Output  | 0.00097282 | 0.00097282 | 0.00097282 |   0.0 |  0.08
Modify  | 0.023904   | 0.023904   | 0.023904   |   0.0 |  2.02
Other   |            | 0.009941   |            |       |  0.84

Nlocal:           2197 ave        2197 max        2197 min
Histogram: 1 0 0 0 0 0 0 0 0 0
Nghost:           3832 ave        3832 max        3832 min
Histogram: 1 0 0 0 0 0 0 0 0 0
Neighs:          78837 ave       78837 max       78837 min
Histogram: 1 0 0 0 0 0 0 0 0 0

Total # of neighbors = 78837
Ave neighs/atom = 35.883933
Neighbor list builds = 154
Dangerous builds = 0

#===============================================================================
# Production phase
#===============================================================================
variable          tm    equal step
variable          Et    equal etotal
variable          Ep    equal pe
variable          Ek    equal ke
variable          tmp   equal temp
variable          pr    equal press

fix statdump all print 1 "${tm} ${Et} ${Ep} ${Ek} ${tmp} ${pr}" screen no file output.txt

#--------------------------------------------------------------
# reset thermostat to NVE and run a larger number of steps
#--------------------------------------------------------------
unfix 2
fix 3 all nve


#-----------------------------------
#   save configurations
#   dumpid = 1
#   all atoms
#   atomic symbol is Ar
#   save positions every 100 steps
#   filename = output.xyz
#
#----------------------------------
#dump 1 all xyz 100 output.xyz
#dump_modify 1 element Ar

#------------------------------------------
# run 10000 more steps in the NVT ensemble
#------------------------------------------
run     10000
Generated 0 of 0 mixed pair_coeff terms from geometric mixing rule
Per MPI rank memory allocation (min/avg/max) = 3.244 | 3.244 | 3.244 Mbytes
   Step          Temp          E_pair         E_mol          TotEng         Press     
      2000   1.2734001     -5.3481918      0             -3.4389612      2.1308516    
      2010   1.2557283     -5.3218475      0             -3.4391124      2.236681     
      2020   1.2771181     -5.3537696      0             -3.4389644      2.1390224    
      2030   1.2523981     -5.3162384      0             -3.4384964      2.3196586    
      2040   1.2413904     -5.2999028      0             -3.4386647      2.3858029    
      2050   1.2739415     -5.3492227      0             -3.4391802      2.1951489    
      2060   1.2432394     -5.3030287      0             -3.4390183      2.3516295    
      2070   1.2841461     -5.364813       0             -3.4394705      2.1279417    
      2080   1.2574941     -5.3245725      0             -3.4391898      2.2434214    
      2090   1.2667705     -5.3385899      0             -3.439299       2.1749353    
      2100   1.2501116     -5.3132531      0             -3.4389393      2.2655395    
      2110   1.2513845     -5.3148492      0             -3.4386269      2.2900372    
      2120   1.2624636     -5.3314438      0             -3.4386104      2.2363097    
      2130   1.2441397     -5.3036848      0             -3.4383247      2.3268519    
      2140   1.2377664     -5.2951576      0             -3.439353       2.3449489    
      2150   1.2664121     -5.3380404      0             -3.439287       2.2010263    
      2160   1.2434113     -5.3030172      0             -3.4387491      2.3393795    
      2170   1.2622123     -5.330848       0             -3.4383912      2.2588162    
      2180   1.2532904     -5.3175046      0             -3.4384246      2.3037847    
      2190   1.263705      -5.3332852      0             -3.4385905      2.2016315    
      2200   1.2811188     -5.3608453      0             -3.4400418      2.0701138    
      2210   1.2483754     -5.3113356      0             -3.4396249      2.2420614    
      2220   1.24051       -5.2988383      0             -3.4389203      2.2810738    
      2230   1.2623516     -5.3309142      0             -3.4382486      2.1835795    
      2240   1.2327668     -5.2855077      0             -3.4371991      2.3636327    
      2250   1.2375788     -5.2943175      0             -3.4387942      2.3163285    
      2260   1.2743891     -5.35007        0             -3.4393564      2.1155954    
      2270   1.2529942     -5.3184416      0             -3.4398058      2.2421323    
      2280   1.2413883     -5.3008488      0             -3.4396139      2.3216295    
      2290   1.2689669     -5.3418576      0             -3.4392736      2.1644355    
      2300   1.238782      -5.296642       0             -3.4393148      2.3107776    
      2310   1.2410416     -5.2997111      0             -3.438996       2.3045011    
      2320   1.2473936     -5.3093316      0             -3.4390929      2.2647163    
      2330   1.27809       -5.3562003      0             -3.4399379      2.0845241    
      2340   1.2768675     -5.3549261      0             -3.4404967      2.092254     
      2350   1.2567083     -5.3241183      0             -3.4399138      2.1806397    
      2360   1.2558793     -5.3229441      0             -3.4399826      2.1824265    
      2370   1.2693583     -5.3425664      0             -3.4393956      2.11479      
      2380   1.2726894     -5.3477128      0             -3.4395476      2.1081673    
      2390   1.2631437     -5.3335777      0             -3.4397245      2.1850542    
      2400   1.2814165     -5.3606564      0             -3.4394066      2.095699     
      2410   1.2427324     -5.3018251      0             -3.4385751      2.2956103    
      2420   1.2439534     -5.303848       0             -3.4387672      2.2979949    
      2430   1.2697498     -5.3430816      0             -3.4393237      2.1661971    
      2440   1.2514351     -5.3151026      0             -3.4388044      2.2630169    
      2450   1.2627668     -5.3320176      0             -3.4387295      2.189135     
      2460   1.2871745     -5.3695089      0             -3.4396261      2.0579318    
      2470   1.2442796     -5.30479        0             -3.4392202      2.2983012    
      2480   1.2538267     -5.3191365      0             -3.4392525      2.2609558    
      2490   1.2698119     -5.3431214      0             -3.4392705      2.1672949    
      2500   1.2775611     -5.3551642      0             -3.4396948      2.1093289    
      2510   1.257161      -5.3241913      0             -3.4393082      2.2121486    
      2520   1.2562964     -5.3233801      0             -3.4397933      2.1989321    
      2530   1.2702348     -5.344121       0             -3.439636       2.1166484    
      2540   1.2484334     -5.3101553      0             -3.4383576      2.2584371    
      2550   1.2490707     -5.3114302      0             -3.438677       2.2513707    
      2560   1.2736318     -5.3489827      0             -3.4394045      2.1049084    
      2570   1.253843      -5.3191193      0             -3.4392109      2.2126454    
      2580   1.25906       -5.3270074      0             -3.439277       2.1943927    
      2590   1.2686224     -5.3421467      0             -3.4400791      2.1515133    
      2600   1.2457071     -5.3066916      0             -3.4389814      2.2959085    
      2610   1.2666568     -5.3386407      0             -3.4395203      2.1608526    
      2620   1.2655762     -5.3375867      0             -3.4400864      2.1187125    
      2630   1.2695498     -5.343521       0             -3.4400631      2.0819249    
      2640   1.2726727     -5.3475938      0             -3.4394537      2.0976604    
      2650   1.2598265     -5.3281473      0             -3.4392676      2.2141077    
      2660   1.2590867     -5.3271715      0             -3.439401       2.2343247    
      2670   1.2631311     -5.3333453      0             -3.439511       2.2135224    
      2680   1.2387414     -5.2968707      0             -3.4396043      2.3571062    
      2690   1.2495949     -5.3131183      0             -3.439579       2.2898186    
      2700   1.2679979     -5.3400749      0             -3.4389438      2.1760105    
      2710   1.2499484     -5.3132457      0             -3.4391765      2.2901107    
      2720   1.2833679     -5.3639398      0             -3.4397641      2.103808     
      2730   1.2603127     -5.329834       0             -3.4402254      2.1851781    
      2740   1.2579722     -5.3258406      0             -3.4397412      2.1971279    
      2750   1.2451001     -5.3059563      0             -3.4391562      2.3096464    
      2760   1.2392182     -5.2971002      0             -3.439119       2.3939598    
      2770   1.2425372     -5.3017287      0             -3.4387713      2.3766062    
      2780   1.2509818     -5.3152226      0             -3.4396039      2.2954004    
      2790   1.2456708     -5.307419       0             -3.4397632      2.281762     
      2800   1.2604419     -5.329432       0             -3.4396297      2.1850068    
      2810   1.277556      -5.3551998      0             -3.4397381      2.107206     
      2820   1.2421127     -5.3019251      0             -3.4396042      2.3182393    
      2830   1.2455569     -5.3070385      0             -3.4395536      2.3276453    
      2840   1.2493372     -5.3128703      0             -3.4397175      2.3062768    
      2850   1.2579783     -5.3250694      0             -3.4389608      2.2322742    
      2860   1.2670554     -5.3388806      0             -3.4391625      2.1668982    
      2870   1.2786098     -5.3562058      0             -3.4391642      2.098407     
      2880   1.2616106     -5.3309699      0             -3.4394154      2.1846149    
      2890   1.2640052     -5.3351831      0             -3.4400383      2.1553296    
      2900   1.274381      -5.3508882      0             -3.4401868      2.1026323    
      2910   1.2747054     -5.3513753      0             -3.4401874      2.0970691    
      2920   1.2566322     -5.3240749      0             -3.4399846      2.2125926    
      2930   1.2612368     -5.3303194      0             -3.4393253      2.2476508    
      2940   1.2428962     -5.3018208      0             -3.4383251      2.3663586    
      2950   1.2543456     -5.3189432      0             -3.4382811      2.299552     
      2960   1.2458795     -5.3053852      0             -3.4374165      2.3539699    
      2970   1.2569692     -5.321949       0             -3.4373533      2.2873242    
      2980   1.2565362     -5.3217988      0             -3.4378525      2.2649023    
      2990   1.2541725     -5.3186309      0             -3.4382285      2.2826373    
      3000   1.2404985     -5.2978004      0             -3.4378997      2.3607524    
      3010   1.2542523     -5.3183619      0             -3.4378397      2.2710657    
      3020   1.262428      -5.3309385      0             -3.4381585      2.2143821    
      3030   1.2691247     -5.3414882      0             -3.4386677      2.1664258    
      3040   1.2590916     -5.3267258      0             -3.4389481      2.2077037    
      3050   1.254207      -5.3193935      0             -3.4389392      2.219258     
      3060   1.2733949     -5.3481396      0             -3.4389167      2.0955242    
      3070   1.2651278     -5.3351868      0             -3.4383589      2.1367782    
      3080   1.2752557     -5.3514959      0             -3.439483       2.074467     
      3090   1.256567      -5.3231449      0             -3.4391524      2.1779238    
      3100   1.2803986     -5.3592086      0             -3.4394848      2.0742253    
      3110   1.2803745     -5.3582079      0             -3.4385204      2.1007336    
      3120   1.258247      -5.3254506      0             -3.4389392      2.2298356    
      3130   1.2609145     -5.3294292      0             -3.4389183      2.2081095    
      3140   1.2790308     -5.3559598      0             -3.4382869      2.0949687    
      3150   1.2737583     -5.3485449      0             -3.4387771      2.1086185    
      3160   1.2757382     -5.3517887      0             -3.4390524      2.145257     
      3170   1.2565802     -5.3233153      0             -3.4393029      2.2707698    
      3180   1.2732853     -5.3482055      0             -3.4391468      2.1704886    
      3190   1.2601552     -5.3283806      0             -3.4390082      2.2443421    
      3200   1.2457875     -5.3063169      0             -3.4384862      2.3183398    
      3210   1.2534911     -5.3179981      0             -3.4386173      2.2703576    
      3220   1.2508268     -5.3134669      0             -3.4380806      2.2731842    
      3230   1.2806742     -5.3591811      0             -3.4390442      2.0831911    
      3240   1.249569      -5.3130157      0             -3.4395153      2.2301708    
      3250   1.2675615     -5.339746       0             -3.4392691      2.1622331    
      3260   1.248968      -5.3120048      0             -3.4394055      2.2685131    
      3270   1.2483495     -5.3113424      0             -3.4396706      2.273745     
      3280   1.2823805     -5.362364       0             -3.4396688      2.0922264    
      3290   1.2578601     -5.3251257      0             -3.4391943      2.2435147    
      3300   1.2610517     -5.3293132      0             -3.4385966      2.2540015    
      3310   1.2455136     -5.3057679      0             -3.4383479      2.325388     
      3320   1.2802151     -5.3583391      0             -3.4388904      2.1041007    
      3330   1.2659873     -5.337324       0             -3.4392074      2.1466132    
      3340   1.2527665     -5.3175947      0             -3.4393003      2.2065726    
      3350   1.2780648     -5.3559242      0             -3.4396996      2.0965691    
      3360   1.2491484     -5.3118852      0             -3.4390154      2.2867002    
      3370   1.2387828     -5.2966198      0             -3.4392914      2.3465145    
      3380   1.249918      -5.3128633      0             -3.4388396      2.2771279    
      3390   1.2621986     -5.3315283      0             -3.4390922      2.208211     
      3400   1.2531917     -5.3187065      0             -3.4397745      2.2343837    
      3410   1.2712014     -5.3452943      0             -3.4393602      2.1296511    
      3420   1.2489026     -5.3128775      0             -3.4403762      2.2692049    
      3430   1.266603      -5.3395831      0             -3.4405433      2.1935757    
      3440   1.2522888     -5.3171291      0             -3.4395509      2.2582204    
      3450   1.2728501     -5.3480744      0             -3.4396682      2.1504897    
      3460   1.24598       -5.3077198      0             -3.4396005      2.3183765    
      3470   1.2396409     -5.2977443      0             -3.4391294      2.3520341    
      3480   1.2493457     -5.3120906      0             -3.4389251      2.2862385    
      3490   1.2745415     -5.3499551      0             -3.439013       2.1593748    
      3500   1.2338154     -5.2889853      0             -3.4391046      2.383686     
      3510   1.2639065     -5.3346221      0             -3.4396253      2.2159288    
      3520   1.2641306     -5.3343868      0             -3.439054       2.1883468    
      3530   1.2642445     -5.334513       0             -3.4390095      2.1675748    
      3540   1.2649717     -5.3354942      0             -3.4389003      2.1585334    
      3550   1.2576367     -5.3241801      0             -3.4385837      2.2188994    
      3560   1.2740458     -5.348617       0             -3.4384182      2.1590094    
      3570   1.2887253     -5.371389       0             -3.4391809      2.0710561    
      3580   1.2355104     -5.2918581      0             -3.4394361      2.3518503    
      3590   1.2771694     -5.3546918      0             -3.4398097      2.1371349    
      3600   1.2775019     -5.3544074      0             -3.4390268      2.1399466    
      3610   1.2754638     -5.3514331      0             -3.4391082      2.1562873    
      3620   1.2584418     -5.3265579      0             -3.4397545      2.2294303    
      3630   1.2238832     -5.2744683      0             -3.4394791      2.3963106    
      3640   1.267226      -5.3399104      0             -3.4399365      2.162891     
      3650   1.2287758     -5.2816031      0             -3.4392785      2.3673661    
      3660   1.2634397     -5.333498       0             -3.4392012      2.1384629    
      3670   1.2805753     -5.3592628      0             -3.4392742      2.0318663    
      3680   1.2504755     -5.3139546      0             -3.4390952      2.2169761    
      3690   1.2740703     -5.3497147      0             -3.4394792      2.1165476    
      3700   1.2446891     -5.3055588      0             -3.4393749      2.2820339    
      3710   1.2706571     -5.344876       0             -3.439758       2.1437085    
      3720   1.2564267     -5.3229573      0             -3.439175       2.2123592    
      3730   1.2679908     -5.3399803      0             -3.4388598      2.1583068    
      3740   1.2442989     -5.3048071      0             -3.4392083      2.2888004    
      3750   1.2566348     -5.3233697      0             -3.4392754      2.2187784    
      3760   1.252598      -5.3183748      0             -3.440333       2.2319086    
      3770   1.2758408     -5.3531143      0             -3.4402242      2.0951481    
      3780   1.2640338     -5.3343834      0             -3.4391957      2.1712279    
      3790   1.2411287     -5.3000391      0             -3.4391935      2.2974885    
      3800   1.272663      -5.3471941      0             -3.4390686      2.1367441    
      3810   1.2777104     -5.3545371      0             -3.4388438      2.08408      
      3820   1.2577744     -5.324974       0             -3.4391711      2.1968221    
      3830   1.2527769     -5.3177671      0             -3.4394571      2.2458793    
      3840   1.244363      -5.30519        0             -3.4394951      2.3124522    
      3850   1.2476827     -5.3103105      0             -3.4396383      2.2854034    
      3860   1.2559255     -5.3232284      0             -3.4401976      2.2153498    
      3870   1.2682429     -5.340462       0             -3.4389635      2.1623711    
      3880   1.2638656     -5.3335114      0             -3.438576       2.2128654    
      3890   1.2317915     -5.2847874      0             -3.4379411      2.4100919    
      3900   1.2465797     -5.3072998      0             -3.4382813      2.314156     
      3910   1.2668677     -5.3386355      0             -3.4391989      2.1719408    
      3920   1.2566132     -5.3230921      0             -3.4390302      2.2140915    
      3930   1.2711759     -5.344929       0             -3.439033       2.1556439    
      3940   1.258517      -5.3253018      0             -3.4383856      2.2533109    
      3950   1.24952       -5.3122348      0             -3.4388079      2.3071888    
      3960   1.2530717     -5.3179589      0             -3.4392069      2.263696     
      3970   1.2638132     -5.3344925      0             -3.4396355      2.1812546    
      3980   1.255762      -5.3224361      0             -3.4396504      2.200393     
      3990   1.3019265     -5.3919148      0             -3.439914       1.967618     
      4000   1.26308       -5.3329845      0             -3.4392268      2.1915603    
      4010   1.2568009     -5.3230468      0             -3.4387035      2.2371943    
      4020   1.2581873     -5.3252533      0             -3.4388314      2.2444816    
      4030   1.2500873     -5.3134124      0             -3.439135       2.2952489    
      4040   1.2536809     -5.3188352      0             -3.4391698      2.2791497    
      4050   1.2598421     -5.3277915      0             -3.4388886      2.2398       
      4060   1.2739508     -5.3490974      0             -3.439041       2.1553978    
      4070   1.2595019     -5.3281204      0             -3.4397275      2.2192003    
      4080   1.2723283     -5.3472274      0             -3.4396037      2.12759      
      4090   1.2731393     -5.3482458      0             -3.439406       2.1228471    
      4100   1.2764607     -5.3526373      0             -3.4388177      2.1137838    
      4110   1.2511307     -5.3144828      0             -3.4386409      2.2729499    
      4120   1.2647198     -5.3355008      0             -3.4392846      2.1859831    
      4130   1.277368      -5.3542596      0             -3.4390797      2.1003472    
      4140   1.2745164     -5.3503602      0             -3.4394558      2.15015      
      4150   1.2434172     -5.3029028      0             -3.4386259      2.3695462    
      4160   1.2377588     -5.2942012      0             -3.4384081      2.4028527    
      4170   1.2344231     -5.2891943      0             -3.4384025      2.4321578    
      4180   1.2542449     -5.3193887      0             -3.4388777      2.3092148    
      4190   1.255401      -5.3216269      0             -3.4393826      2.2788827    
      4200   1.2467522     -5.3082929      0             -3.4390157      2.3456185    
      4210   1.2643205     -5.3345346      0             -3.438917       2.2390333    
      4220   1.2643836     -5.3346679      0             -3.4389558      2.1828745    
      4230   1.2559458     -5.3213248      0             -3.4382636      2.200358     
      4240   1.2708366     -5.3445493      0             -3.439162       2.1232766    
      4250   1.2403015     -5.2984436      0             -3.4388381      2.2991235    
      4260   1.2602927     -5.3289391      0             -3.4393605      2.1872852    
      4270   1.2524673     -5.3170656      0             -3.4392198      2.2280358    
      4280   1.2620321     -5.3305863      0             -3.4383998      2.1918571    
      4290   1.2767058     -5.3527255      0             -3.4385384      2.1402712    
      4300   1.2561455     -5.3224769      0             -3.4391163      2.2941343    
      4310   1.2488419     -5.3110689      0             -3.4386587      2.3554416    
      4320   1.2345273     -5.2894241      0             -3.4384759      2.3852778    
      4330   1.2776638     -5.3537974      0             -3.4381739      2.1355154    
      4340   1.2652635     -5.3357472      0             -3.4387158      2.1866433    
      4350   1.2661917     -5.3378645      0             -3.4394415      2.1556899    
      4360   1.2429866     -5.3028815      0             -3.4392503      2.2413412    
      4370   1.274988      -5.3505385      0             -3.4389269      2.0686684    
      4380   1.252668      -5.3177169      0             -3.4395701      2.2076515    
      4390   1.2533691     -5.3177355      0             -3.4385376      2.2276944    
      4400   1.2498531     -5.3127982      0             -3.4388718      2.2680065    
      4410   1.2556091     -5.3204762      0             -3.4379197      2.2673505    
      4420   1.2345085     -5.2897606      0             -3.4388407      2.3784754    
      4430   1.2671897     -5.3390409      0             -3.4391215      2.1832752    
      4440   1.2525081     -5.3168162      0             -3.4389092      2.2449986    
      4450   1.2568315     -5.3228613      0             -3.4384722      2.2146255    
      4460   1.2836508     -5.3629214      0             -3.4383216      2.0850831    
      4470   1.2587872     -5.3254687      0             -3.4381474      2.2516855    
      4480   1.2685358     -5.339761       0             -3.4378233      2.2194776    
      4490   1.261008      -5.3289446      0             -3.4382936      2.2594251    
      4500   1.2605922     -5.3290951      0             -3.4390675      2.2472953    
      4510   1.2511154     -5.3152184      0             -3.4393995      2.2821598    
      4520   1.2814742     -5.3617425      0             -3.4404061      2.1096515    
      4530   1.2511599     -5.3153058      0             -3.4394202      2.2745721    
      4540   1.2479945     -5.3095754      0             -3.4384357      2.2906981    
      4550   1.2610605     -5.3294433      0             -3.4387136      2.2105058    
      4560   1.2495986     -5.3124628      0             -3.4389181      2.2757296    
      4570   1.259242      -5.3265479      0             -3.4385446      2.2199574    
      4580   1.2620177     -5.3304343      0             -3.4382694      2.2223775    
      4590   1.2594877     -5.3269744      0             -3.4386028      2.2462236    
      4600   1.2600296     -5.327918       0             -3.4387338      2.2169346    
      4610   1.24833       -5.3105402      0             -3.4388976      2.2331734    
      4620   1.2674086     -5.3390934      0             -3.4388458      2.1198226    
      4630   1.250564      -5.3131583      0             -3.4381661      2.2226305    
      4640   1.2569109     -5.3230206      0             -3.4385124      2.2289747    
      4650   1.248213      -5.3098362      0             -3.438369       2.3208468    
      4660   1.2540964     -5.3194509      0             -3.4391625      2.300023     
      4670   1.2594093     -5.3275558      0             -3.4393018      2.230402     
      4680   1.2448834     -5.3056878      0             -3.4392126      2.2483301    
      4690   1.2589752     -5.3270174      0             -3.4394142      2.1534093    
      4700   1.2669842     -5.3392754      0             -3.4396642      2.1442118    
      4710   1.2590721     -5.3270779      0             -3.4393293      2.2360959    
      4720   1.2632917     -5.3335419      0             -3.4394668      2.219078     
      4730   1.2687311     -5.3416837      0             -3.4394533      2.1772087    
      4740   1.2686093     -5.3415032      0             -3.4394555      2.1815584    
      4750   1.2568685     -5.3235319      0             -3.4390873      2.2293407    
      4760   1.2562445     -5.3223396      0             -3.4388305      2.2273771    
      4770   1.2704132     -5.3437989      0             -3.4390465      2.1591282    
      4780   1.2632739     -5.3329592      0             -3.4389108      2.1970293    
      4790   1.287839      -5.3699832      0             -3.4391041      2.0724104    
      4800   1.2506899     -5.3134943      0             -3.4383134      2.2899855    
      4810   1.2457525     -5.307363       0             -3.4395847      2.3227155    
      4820   1.2492557     -5.3121558      0             -3.4391253      2.287546     
      4830   1.2781098     -5.3550049      0             -3.4387128      2.1113459    
      4840   1.2790263     -5.3565089      0             -3.4388426      2.0888844    
      4850   1.2668902     -5.3377944      0             -3.4383241      2.1452725    
      4860   1.2589413     -5.3261942      0             -3.4386419      2.1919668    
      4870   1.262883      -5.3318234      0             -3.4383612      2.2254079    
      4880   1.2392135     -5.2967467      0             -3.4387725      2.3901481    
      4890   1.2505234     -5.3133527      0             -3.4384214      2.3333675    
      4900   1.2530839     -5.3170583      0             -3.438288       2.3177727    
      4910   1.2457205     -5.3064239      0             -3.4386937      2.3691558    
      4920   1.2426423     -5.3023853      0             -3.4392704      2.3674055    
      4930   1.2407421     -5.3000892      0             -3.4398231      2.3341376    
      4940   1.270438      -5.3441217      0             -3.439332       2.1441416    
      4950   1.2777095     -5.3552334      0             -3.4395415      2.1055827    
      4960   1.2544009     -5.3201082      0             -3.4393632      2.2690301    
      4970   1.2459468     -5.3071172      0             -3.4390476      2.3158877    
      4980   1.2792184     -5.357433       0             -3.4394788      2.1214541    
      4990   1.263778      -5.3336158      0             -3.4388117      2.1906923    
      5000   1.2681795     -5.3397241      0             -3.4383207      2.1709725    
      5010   1.233862      -5.2884813      0             -3.4385307      2.3974329    
      5020   1.2200217     -5.2675393      0             -3.4383397      2.4951732    
      5030   1.2485936     -5.3111009      0             -3.4390629      2.3073779    
      5040   1.2648925     -5.3360924      0             -3.4396172      2.2059724    
      5050   1.2546354     -5.3207804      0             -3.4396839      2.2645412    
      5060   1.2729171     -5.3475876      0             -3.439081       2.1623964    
      5070   1.2451887     -5.3055975      0             -3.4386646      2.3228787    
      5080   1.2550293     -5.3210053      0             -3.4393182      2.2707154    
      5090   1.2444431     -5.3049521      0             -3.439137       2.3007506    
      5100   1.2341165     -5.2898131      0             -3.439481       2.3470877    
      5110   1.254491      -5.320281       0             -3.439401       2.2383763    
      5120   1.2669598     -5.338291       0             -3.4387163      2.16652      
      5130   1.2720004     -5.3461497      0             -3.4390175      2.1484865    
      5140   1.2438398     -5.3036161      0             -3.4387056      2.300099     
      5150   1.2821652     -5.3611082      0             -3.4387359      2.0903544    
      5160   1.2598565     -5.3274018      0             -3.4384772      2.2187224    
      5170   1.2536042     -5.3178662      0             -3.4383158      2.2795418    
      5180   1.2521149     -5.3158636      0             -3.4385461      2.3029818    
      5190   1.2479905     -5.3091443      0             -3.4380106      2.3015952    
      5200   1.2593111     -5.3264723      0             -3.4383655      2.2232706    
      5210   1.2553011     -5.3209334      0             -3.4388389      2.2276567    
      5220   1.252096      -5.3160078      0             -3.4387187      2.2349779    
      5230   1.2548062     -5.3196344      0             -3.4382819      2.2415192    
      5240   1.2507672     -5.3139856      0             -3.4386888      2.282301     
      5250   1.2628429     -5.3331405      0             -3.4397383      2.2299442    
      5260   1.2606979     -5.3292617      0             -3.4390756      2.23542      
      5270   1.2614992     -5.3306971      0             -3.4393096      2.2082893    
      5280   1.2488751     -5.3120705      0             -3.4396105      2.2615843    
      5290   1.2626689     -5.3326717      0             -3.4395305      2.2012304    
      5300   1.2590054     -5.3268271      0             -3.4391786      2.2270414    
      5310   1.2703412     -5.3437237      0             -3.4390793      2.1984958    
      5320   1.2532147     -5.318051       0             -3.4390846      2.3048959    
      5330   1.2704864     -5.3445746      0             -3.4397124      2.2097368    
      5340   1.2533055     -5.3184643      0             -3.4393618      2.2538284    
      5350   1.256205      -5.3232899      0             -3.43984        2.2153636    
      5360   1.2529166     -5.3185608      0             -3.4400414      2.2343145    
      5370   1.2589873     -5.3268209      0             -3.4391995      2.207497     
      5380   1.2467513     -5.3091594      0             -3.4398836      2.2928801    
      5390   1.2445365     -5.3058187      0             -3.4398636      2.3092361    
      5400   1.2375682     -5.2955252      0             -3.4400178      2.3361084    
      5410   1.2522292     -5.317509       0             -3.4400202      2.233136     
      5420   1.2528914     -5.3177369      0             -3.4392552      2.2284254    
      5430   1.2437191     -5.3040038      0             -3.4392743      2.2903293    
      5440   1.2592537     -5.328211       0             -3.4401902      2.1952347    
      5450   1.2416659     -5.3016846      0             -3.4400334      2.321656     
      5460   1.2442626     -5.3053792      0             -3.4398347      2.3081711    
      5470   1.2659651     -5.3368651      0             -3.4387818      2.1720268    
      5480   1.2476591     -5.3098802      0             -3.4392434      2.2892852    
      5490   1.2787424     -5.3571368      0             -3.4398963      2.1343392    
      5500   1.2421721     -5.3015651      0             -3.4391551      2.3279656    
      5510   1.2445471     -5.3054351      0             -3.4394642      2.331101     
      5520   1.2565453     -5.3225069      0             -3.4385468      2.2596493    
      5530   1.243142      -5.3025122      0             -3.438648       2.3100556    
      5540   1.2633166     -5.3325937      0             -3.4384814      2.2059818    
      5550   1.2443168     -5.3041803      0             -3.4385546      2.3112103    
      5560   1.2380445     -5.2932793      0             -3.4370577      2.355952     
      5570   1.2315455     -5.2842491      0             -3.4377716      2.3443798    
      5580   1.2672339     -5.3377073      0             -3.4377216      2.1218414    
      5590   1.2697336     -5.3423839      0             -3.4386504      2.1017785    
      5600   1.2319466     -5.2859251      0             -3.4388463      2.3206542    
      5610   1.2585142     -5.3256886      0             -3.4387766      2.2194301    
      5620   1.2492618     -5.3112027      0             -3.4381629      2.2961526    
      5630   1.2522102     -5.3159526      0             -3.4384922      2.2688029    
      5640   1.2400242     -5.2987542      0             -3.4395645      2.3248342    
      5650   1.2547991     -5.3203176      0             -3.4389757      2.2318022    
      5660   1.2481656     -5.3100932      0             -3.4386969      2.2701229    
      5670   1.2431895     -5.30311        0             -3.4391745      2.2998843    
      5680   1.2757204     -5.3522601      0             -3.4395506      2.1210522    
      5690   1.2754037     -5.3511142      0             -3.4388794      2.1415953    
      5700   1.2404376     -5.2987439      0             -3.4389344      2.3603307    
      5710   1.2670481     -5.3380561      0             -3.438349       2.2301206    
      5720   1.2717778     -5.3450516      0             -3.4382531      2.1809332    
      5730   1.2518491     -5.3150586      0             -3.4381396      2.2806342    
      5740   1.2378239     -5.2942597      0             -3.4383691      2.3506476    
      5750   1.2686127     -5.3407525      0             -3.4386995      2.1716927    
      5760   1.278041      -5.3557296      0             -3.4395407      2.1316857    
      5770   1.2385091     -5.2963858      0             -3.4394677      2.3697565    
      5780   1.2474449     -5.3091757      0             -3.43886        2.3442605    
      5790   1.2562131     -5.322045       0             -3.438583       2.2798537    
      5800   1.2496993     -5.3125783      0             -3.4388826      2.3050982    
      5810   1.2609266     -5.3295115      0             -3.4389825      2.2491962    
      5820   1.2681221     -5.340506       0             -3.4391887      2.1905265    
      5830   1.2435634     -5.3030615      0             -3.4385654      2.304612     
      5840   1.2516295     -5.3155467      0             -3.4389569      2.271574     
      5850   1.2605542     -5.3282556      0             -3.4382849      2.2020344    
      5860   1.281092      -5.359248       0             -3.4384847      2.0837517    
      5870   1.2492909     -5.3117415      0             -3.438658       2.2491343    
      5880   1.2276123     -5.2789336      0             -3.4383533      2.3489542    
      5890   1.2627667     -5.3322798      0             -3.4389919      2.1773122    
      5900   1.2636562     -5.3329536      0             -3.438332       2.1932355    
      5910   1.2712099     -5.344572       0             -3.438625       2.1609323    
      5920   1.2665144     -5.3379647      0             -3.4390579      2.1550118    
      5930   1.2622116     -5.3314932      0             -3.4390376      2.1727667    
      5940   1.2744968     -5.349471       0             -3.438596       2.1310783    
      5950   1.2845072     -5.3641925      0             -3.4383087      2.1000588    
      5960   1.2534562     -5.3178221      0             -3.4384936      2.2760505    
      5970   1.2494038     -5.3114992      0             -3.4382465      2.2932815    
      5980   1.2672547     -5.3382082      0             -3.4381914      2.204936     
      5990   1.2644879     -5.333682       0             -3.4378134      2.2249921    
      6000   1.2653577     -5.335875       0             -3.4387024      2.2309632    
      6010   1.2496654     -5.3123254      0             -3.4386805      2.3077166    
      6020   1.2676443     -5.3400823      0             -3.4394813      2.1984314    
      6030   1.2806399     -5.3587211      0             -3.4386357      2.1224995    
      6040   1.2660836     -5.3371862      0             -3.4389253      2.195202     
      6050   1.2595065     -5.3265932      0             -3.4381934      2.2269642    
      6060   1.269984      -5.3425706      0             -3.4384617      2.1792582    
      6070   1.2621802     -5.3309972      0             -3.4385886      2.2283398    
      6080   1.2396616     -5.2969509      0             -3.4383049      2.347496     
      6090   1.2580367     -5.3242667      0             -3.4380706      2.258211     
      6100   1.2789679     -5.3552944      0             -3.4377158      2.1314845    
      6110   1.2575782     -5.3240217      0             -3.4385131      2.2166998    
      6120   1.2581014     -5.3253924      0             -3.4390992      2.2248081    
      6130   1.2471448     -5.3087089      0             -3.4388432      2.3228526    
      6140   1.2537732     -5.3184962      0             -3.4386924      2.3017965    
      6150   1.2511848     -5.3143834      0             -3.4384604      2.303834     
      6160   1.2525883     -5.3165693      0             -3.438542       2.2613952    
      6170   1.2650908     -5.3357292      0             -3.4389568      2.1678799    
      6180   1.239935      -5.2972447      0             -3.4381888      2.2926955    
      6190   1.2522908     -5.3156923      0             -3.4381111      2.2449502    
      6200   1.2524847     -5.3160738      0             -3.4382019      2.2663884    
      6210   1.2543674     -5.319269       0             -3.4385744      2.2574808    
      6220   1.2674634     -5.3385854      0             -3.4382556      2.1872288    
      6230   1.2443441     -5.3043156      0             -3.4386491      2.3201742    
      6240   1.2310512     -5.2842919      0             -3.4385557      2.390127     
      6250   1.2282804     -5.2798502      0             -3.4382681      2.3732092    
      6260   1.2605012     -5.3289955      0             -3.4391044      2.1927458    
      6270   1.2671421     -5.3388817      0             -3.4390337      2.1749493    
      6280   1.2552624     -5.3203414      0             -3.4383048      2.2604169    
      6290   1.2373383     -5.2937325      0             -3.4385699      2.366332     
      6300   1.228186      -5.2798086      0             -3.4383681      2.4254392    
      6310   1.2545133     -5.3194827      0             -3.4385693      2.2692288    
      6320   1.2525459     -5.3167095      0             -3.4387459      2.2791355    
      6330   1.2423666     -5.3017561      0             -3.4390544      2.3115727    
      6340   1.2608472     -5.3289732      0             -3.4385632      2.1586194    
      6350   1.2731208     -5.3471485      0             -3.4383365      2.0923739    
      6360   1.2504347     -5.3125546      0             -3.4377564      2.2169461    
      6370   1.2467174     -5.3070606      0             -3.4378357      2.2578598    
      6380   1.2457207     -5.3058678      0             -3.4381373      2.261953     
      6390   1.2248088     -5.2745733      0             -3.4381964      2.3954236    
      6400   1.2624509     -5.3313538      0             -3.4385394      2.2157948    
      6410   1.2484423     -5.3101798      0             -3.4383686      2.2941525    
      6420   1.2622427     -5.3314679      0             -3.4389657      2.2055713    
      6430   1.2673154     -5.3390761      0             -3.4389683      2.1638802    
      6440   1.2438243     -5.3031424      0             -3.4382552      2.2985162    
      6450   1.2563555     -5.3222142      0             -3.4385387      2.2174935    
      6460   1.2382827     -5.2958713      0             -3.4392926      2.31188      
      6470   1.2477319     -5.310283       0             -3.439537       2.2858718    
      6480   1.2407125     -5.2995134      0             -3.4392917      2.336081     
      6490   1.2669172     -5.3385851      0             -3.4390743      2.1932054    
      6500   1.2626356     -5.332016       0             -3.4389247      2.186952     
      6510   1.2776629     -5.3546545      0             -3.4390326      2.0759674    
      6520   1.2612574     -5.3302054      0             -3.4391805      2.1868454    
      6530   1.2539097     -5.3196373      0             -3.4396288      2.263616     
      6540   1.2349225     -5.2904489      0             -3.4389083      2.3716751    
      6550   1.2277848     -5.279742       0             -3.438903       2.3875393    
      6560   1.2663924     -5.3379193      0             -3.4391954      2.1844511    
      6570   1.2413149     -5.3004625      0             -3.4393377      2.3152559    
      6580   1.2470585     -5.309316       0             -3.4395797      2.2889645    
      6590   1.2646768     -5.3349407      0             -3.4387889      2.215217     
      6600   1.2549648     -5.3203988      0             -3.4388084      2.2862584    
      6610   1.2327267     -5.2860442      0             -3.4377957      2.4081969    
      6620   1.2518088     -5.3154122      0             -3.4385537      2.27074      
      6630   1.2531809     -5.3182566      0             -3.4393409      2.2484871    
      6640   1.2756402     -5.351555       0             -3.4389657      2.0908286    
      6650   1.2484369     -5.3106112      0             -3.4388081      2.2176503    
      6660   1.2466903     -5.308029       0             -3.4388447      2.2682829    
      6670   1.2735246     -5.3486273      0             -3.4392098      2.160551     
      6680   1.2456286     -5.306239       0             -3.4386465      2.2907062    
      6690   1.2746378     -5.3500125      0             -3.438926       2.1101972    
      6700   1.257634      -5.3247272      0             -3.4391348      2.2026942    
      6710   1.2507362     -5.314042       0             -3.4387917      2.2440097    
      6720   1.2543052     -5.3199558      0             -3.4393543      2.2256352    
      6730   1.2615065     -5.3303134      0             -3.4389149      2.1781476    
      6740   1.2504459     -5.313575       0             -3.4387599      2.2394311    
      6750   1.2451323     -5.3060936      0             -3.4392453      2.2694029    
      6760   1.249695      -5.3124683      0             -3.438779       2.2474534    
      6770   1.2519936     -5.3160445      0             -3.438909       2.2471368    
      6780   1.2409631     -5.2991955      0             -3.4385982      2.3201303    
      6790   1.293255      -5.3777006      0             -3.4387011      2.0190724    
      6800   1.2620071     -5.3301011      0             -3.437952       2.187225     
      6810   1.2779386     -5.3546663      0             -3.4386308      2.1384384    
      6820   1.246843      -5.3071093      0             -3.437696       2.3299112    
      6830   1.2502237     -5.3123592      0             -3.4378772      2.3163647    
      6840   1.2681791     -5.339446       0             -3.4380432      2.2005551    
      6850   1.2503309     -5.3130362      0             -3.4383935      2.2688987    
      6860   1.2536627     -5.318233       0             -3.4385949      2.2054362    
      6870   1.2768775     -5.3530716      0             -3.4386271      2.0571646    
      6880   1.255537      -5.3218579      0             -3.4394097      2.1822672    
      6890   1.2639782     -5.3345484      0             -3.4394441      2.1541626    
      6900   1.2729519     -5.3478455      0             -3.4392868      2.1247738    
      6910   1.2644619     -5.3350372      0             -3.4392077      2.1831868    
      6920   1.2542929     -5.3197042      0             -3.4391212      2.2545742    
      6930   1.2650974     -5.3358988      0             -3.4391165      2.1902237    
      6940   1.23577       -5.2920163      0             -3.439205       2.3480832    
      6950   1.2697102     -5.3433382      0             -3.4396399      2.1435964    
      6960   1.2854836     -5.36668        0             -3.4393323      2.0670335    
      6970   1.2417469     -5.3010578      0             -3.4392852      2.2923406    
      6980   1.2781348     -5.3558571      0             -3.4395275      2.0756656    
      6990   1.2661842     -5.3371813      0             -3.4387694      2.1423585    
      7000   1.224249      -5.273648       0             -3.4381103      2.3823037    
      7010   1.251977      -5.3160844      0             -3.4389737      2.2333333    
      7020   1.2636941     -5.3331962      0             -3.4385178      2.1690466    
      7030   1.2300728     -5.2832174      0             -3.4389481      2.3539553    
      7040   1.2655072     -5.3358892      0             -3.4384924      2.1863069    
      7050   1.2475953     -5.3087635      0             -3.4382223      2.3143804    
      7060   1.2674569     -5.3388766      0             -3.4385566      2.1977532    
      7070   1.2322616     -5.2864071      0             -3.438856       2.340708     
      7080   1.2574809     -5.324427       0             -3.4390641      2.1935139    
      7090   1.2661995     -5.3378878      0             -3.4394531      2.1559706    
      7100   1.2453835     -5.3069875      0             -3.4397626      2.2679893    
      7110   1.2590202     -5.3275356      0             -3.4398648      2.195444     
      7120   1.2606641     -5.3295195      0             -3.4393841      2.1958316    
      7130   1.2556359     -5.3221275      0             -3.4395309      2.2319159    
      7140   1.2788799     -5.3567036      0             -3.4392569      2.1125554    
      7150   1.2410928     -5.2998203      0             -3.4390284      2.3319583    
      7160   1.2519973     -5.3160072      0             -3.4388661      2.2631496    
      7170   1.2688431     -5.3416917      0             -3.4392933      2.1618077    
      7180   1.2383358     -5.2956638      0             -3.4390056      2.3139248    
      7190   1.2533624     -5.3183727      0             -3.4391848      2.2008683    
      7200   1.2527785     -5.3175804      0             -3.439268       2.1987788    
      7210   1.2862386     -5.3682157      0             -3.439736       2.0452084    
      7220   1.2283086     -5.2812439      0             -3.4396196      2.3883718    
      7230   1.2418738     -5.3019001      0             -3.4399373      2.2959204    
      7240   1.2662717     -5.3374448      0             -3.4389018      2.1226387    
      7250   1.2395588     -5.2966966      0             -3.4382048      2.2693676    
      7260   1.2643151     -5.3338947      0             -3.4382852      2.137848     
      7270   1.2605684     -5.328596       0             -3.4386041      2.1621858    
      7280   1.2446454     -5.3047181      0             -3.4385998      2.2839195    
      7290   1.2453482     -5.3057121      0             -3.4385402      2.286504     
      7300   1.2461911     -5.3074086      0             -3.4389728      2.2846719    
      7310   1.2585408     -5.3257331      0             -3.4387811      2.2158581    
      7320   1.2653323     -5.3357675      0             -3.438633       2.1900463    
      7330   1.2316046     -5.2851059      0             -3.4385398      2.3830788    
      7340   1.2764097     -5.3516838      0             -3.4379407      2.1179537    
      7350   1.2757737     -5.3510384      0             -3.438249       2.0921684    
      7360   1.2458436     -5.3055785      0             -3.4376637      2.2599213    
      7370   1.2476775     -5.3091996      0             -3.4385352      2.2777615    
      7380   1.2571563     -5.3231398      0             -3.4382637      2.220727     
      7390   1.2534078     -5.3178415      0             -3.4385856      2.2359619    
      7400   1.2495754     -5.3122043      0             -3.4386943      2.244301     
      7410   1.2640876     -5.334035       0             -3.4387667      2.179061     
      7420   1.2571188     -5.3238612      0             -3.4390414      2.2234111    
      7430   1.2637009     -5.333994       0             -3.4393055      2.193817     
      7440   1.2332046     -5.2881802      0             -3.4392152      2.3529438    
      7450   1.2658098     -5.3369437      0             -3.4390932      2.174738     
      7460   1.2598803     -5.3279376      0             -3.4389773      2.1795775    
      7470   1.2721545     -5.3467956      0             -3.4394324      2.1188709    
      7480   1.2687223     -5.3418868      0             -3.4396697      2.143999     
      7490   1.2589615     -5.3270304      0             -3.4394477      2.2300734    
      7500   1.2473104     -5.3093492      0             -3.4392351      2.2850979    
      7510   1.2649334     -5.3361857      0             -3.4396493      2.150218     
      7520   1.2672942     -5.3391485      0             -3.4390724      2.1247964    
      7530   1.2723068     -5.3471573      0             -3.4395657      2.0853829    
      7540   1.2584567     -5.3261505      0             -3.4393247      2.1864958    
      7550   1.2534473     -5.3188468      0             -3.4395316      2.228892     
      7560   1.2608113     -5.3301871      0             -3.4398309      2.2017396    
      7570   1.2408869     -5.2992799      0             -3.4387968      2.3138146    
      7580   1.2702754     -5.3439006      0             -3.4393548      2.1573947    
      7590   1.2454633     -5.3060842      0             -3.4387396      2.29226      
      7600   1.2570873     -5.3238712      0             -3.4390985      2.2306473    
      7610   1.2470597     -5.3084416      0             -3.4387036      2.2841362    
      7620   1.258329      -5.3249912      0             -3.4383568      2.2486532    
      7630   1.2506164     -5.313378       0             -3.4383073      2.3100476    
      7640   1.2568205     -5.3232132      0             -3.4388405      2.2556644    
      7650   1.2527041     -5.3170029      0             -3.438802       2.2556939    
      7660   1.2569993     -5.3229687      0             -3.438328       2.2246855    
      7670   1.2686561     -5.3409432      0             -3.4388253      2.1298467    
      7680   1.2756495     -5.3512675      0             -3.4386643      2.0699284    
      7690   1.2722544     -5.3462159      0             -3.438703       2.1226646    
      7700   1.2689023     -5.3407763      0             -3.4382892      2.1595988    
      7710   1.2655305     -5.3358639      0             -3.4384322      2.1813038    
      7720   1.2574186     -5.3239237      0             -3.4386544      2.2371564    
      7730   1.2607802     -5.3295418      0             -3.4392323      2.2067652    
      7740   1.2578762     -5.3255584      0             -3.4396029      2.2014922    
      7750   1.2766941     -5.3532819      0             -3.4391124      2.0960727    
      7760   1.2530861     -5.3172381      0             -3.4384646      2.2363384    
      7770   1.2695999     -5.3420481      0             -3.438515       2.1570627    
      7780   1.2916736     -5.3750288      0             -3.4384003      2.0653832    
      7790   1.2498616     -5.312159       0             -3.4382199      2.297877     
      7800   1.2564886     -5.3224338      0             -3.4385588      2.2553092    
      7810   1.2653675     -5.3357912      0             -3.4386039      2.2088393    
      7820   1.2703477     -5.3430317      0             -3.4383775      2.1702443    
      7830   1.2523488     -5.3156715      0             -3.4380034      2.2746536    
      7840   1.2554665     -5.321273       0             -3.4389305      2.2718029    
      7850   1.2660311     -5.3373656      0             -3.4391834      2.237623     
      7860   1.2400832     -5.2981091      0             -3.4388309      2.3940278    
      7870   1.2448713     -5.3056454      0             -3.4391884      2.375781     
      7880   1.2496164     -5.3127443      0             -3.439173       2.3271626    
      7890   1.2624836     -5.3316274      0             -3.4387639      2.2448426    
      7900   1.263733      -5.333262       0             -3.4385254      2.2495031    
      7910   1.2511769     -5.3143607      0             -3.4384496      2.301262     
      7920   1.2437193     -5.303336       0             -3.4386062      2.3003204    
[...]
      9850   1.269249      -5.3418434      0             -3.4388366      2.1572974    
      9860   1.2651955     -5.336337       0             -3.4394076      2.1517428    
      9870   1.2711257     -5.3449901      0             -3.4391693      2.1160051    
      9880   1.243512      -5.3036958      0             -3.4392768      2.2732424    
      9890   1.2805463     -5.359168       0             -3.4392229      2.0540492    
      9900   1.2728243     -5.3475788      0             -3.4392113      2.0747044    
      9910   1.2605047     -5.330121       0             -3.4402246      2.1645208    
      9920   1.2527671     -5.3180687      0             -3.4397735      2.2235681    
      9930   1.270025      -5.3442129      0             -3.4400425      2.15002      
      9940   1.2424915     -5.3025866      0             -3.4396977      2.3099449    
      9950   1.2568013     -5.323663       0             -3.4393191      2.2722033    
      9960   1.2389286     -5.2963531      0             -3.4388061      2.3793713    
      9970   1.2549169     -5.3201529      0             -3.4386343      2.2888857    
      9980   1.2651022     -5.3356371      0             -3.4388476      2.2367119    
      9990   1.2637696     -5.3332824      0             -3.4384909      2.2509107    
     10000   1.264167      -5.3338076      0             -3.4384203      2.2524493    
     10010   1.2594322     -5.3265085      0             -3.4382201      2.2578543    
     10020   1.2425174     -5.301565       0             -3.4386373      2.3123391    
     10030   1.250604      -5.3138351      0             -3.4387829      2.2294113    
     10040   1.2490923     -5.3118408      0             -3.4390552      2.23112      
     10050   1.2706043     -5.3439487      0             -3.4389097      2.154405     
     10060   1.2562914     -5.3221103      0             -3.4385309      2.2360739    
     10070   1.2775916     -5.3543299      0             -3.4388148      2.1279959    
     10080   1.2741288     -5.3493567      0             -3.4390334      2.1463052    
     10090   1.2438845     -5.3041152      0             -3.4391377      2.3241654    
     10100   1.2516753     -5.3154661      0             -3.4388078      2.3010599    
     10110   1.2512351     -5.3150721      0             -3.4390736      2.2702343    
     10120   1.2719169     -5.3463802      0             -3.4393733      2.1074812    
     10130   1.2497686     -5.3128928      0             -3.4390933      2.2237902    
     10140   1.2437252     -5.303958       0             -3.4392193      2.2540597    
     10150   1.2756592     -5.351492       0             -3.4388742      2.0536846    
     10160   1.2550234     -5.3210558      0             -3.4393776      2.1698469    
     10170   1.2634106     -5.3342549      0             -3.4400017      2.1433402    
     10180   1.2752253     -5.3521567      0             -3.4401894      2.0718695    
     10190   1.2554444     -5.3218955      0             -3.4395861      2.1877351    
     10200   1.26932       -5.3422955      0             -3.4391821      2.1159001    
     10210   1.2666934     -5.3389127      0             -3.4397374      2.1306885    
     10220   1.2667692     -5.3391116      0             -3.4398228      2.1323254    
     10230   1.2637199     -5.3343747      0             -3.4396577      2.1576655    
     10240   1.2354084     -5.2908595      0             -3.4385904      2.3323801    
     10250   1.243581      -5.3039418      0             -3.4394193      2.2862431    
     10260   1.249005      -5.3121356      0             -3.4394809      2.2501852    
     10270   1.2525494     -5.31779        0             -3.4398211      2.2202458    
     10280   1.2809032     -5.360487       0             -3.4400067      2.0614593    
     10290   1.2516246     -5.3159491      0             -3.4393668      2.2278365    
     10300   1.2656785     -5.3361205      0             -3.4384669      2.1604112    
     10310   1.26176       -5.3312288      0             -3.4394502      2.1712265    
     10320   1.2483031     -5.3104825      0             -3.4388801      2.2642944    
     10330   1.2472577     -5.308411       0             -3.4383761      2.2851711    
     10340   1.2694578     -5.3411803      0             -3.4378603      2.1404699    
     10350   1.2763623     -5.3525605      0             -3.4388884      2.0806136    
     10360   1.2729425     -5.3469805      0             -3.4384358      2.0869764    
     10370   1.2735629     -5.3484828      0             -3.4390079      2.0897403    
     10380   1.2647608     -5.3348808      0             -3.4386031      2.1598833    
     10390   1.2599284     -5.3274633      0             -3.438431       2.2214668    
     10400   1.2577661     -5.3243863      0             -3.4385959      2.2456065    
     10410   1.2541177     -5.3192054      0             -3.4388851      2.2923137    
     10420   1.2261471     -5.276954       0             -3.4385705      2.4629667    
     10430   1.2633488     -5.3327437      0             -3.438583       2.2487877    
     10440   1.2723338     -5.3464969      0             -3.4388648      2.1669596    
     10450   1.2416817     -5.3010515      0             -3.4393766      2.3255156    
     10460   1.232501      -5.286945       0             -3.4390349      2.3386768    
     10470   1.2720083     -5.3455104      0             -3.4383664      2.075838     
     10480   1.263941      -5.3337912      0             -3.4387426      2.1404617    
     10490   1.2580656     -5.324795       0             -3.4385556      2.2125327    
     10500   1.2596292     -5.3269903      0             -3.4384065      2.2162421    
     10510   1.2518557     -5.3155895      0             -3.4386606      2.2515408    
     10520   1.2455547     -5.3066179      0             -3.4391362      2.2415697    
     10530   1.2722847     -5.3461119      0             -3.4385535      2.0816324    
     10540   1.2684654     -5.341182       0             -3.4393499      2.1122112    
     10550   1.2560581     -5.3230122      0             -3.4397825      2.1909283    
     10560   1.2662199     -5.3378113      0             -3.439346       2.1168675    
     10570   1.2719161     -5.346084       0             -3.4390783      2.0798469    
     10580   1.2752146     -5.3510262      0             -3.439075       2.049711     
     10590   1.2749654     -5.3498475      0             -3.4382699      2.071475     
     10600   1.2516689     -5.3154881      0             -3.4388393      2.2168377    
     10610   1.2921531     -5.3768062      0             -3.4394588      2.0153707    
     10620   1.2594439     -5.3281822      0             -3.4398762      2.1939493    
     10630   1.2565829     -5.3236287      0             -3.4396124      2.23513      
     10640   1.2503137     -5.3142859      0             -3.439669       2.2854205    
     10650   1.2532135     -5.317604       0             -3.4386393      2.2641254    
     10660   1.2920241     -5.3758637      0             -3.4387096      2.0234667    
     10670   1.268879      -5.3413209      0             -3.4388688      2.1211358    
     10680   1.2667554     -5.3378858      0             -3.4386175      2.1652489    
     10690   1.2575302     -5.3245219      0             -3.4390851      2.2283503    
     10700   1.2666234     -5.3378545      0             -3.4387842      2.1882723    
     10710   1.2641561     -5.3340085      0             -3.4386376      2.2289154    
     10720   1.2455599     -5.3064482      0             -3.4389587      2.3347016    
     10730   1.2587866     -5.3259958      0             -3.4386754      2.2687995    
     10740   1.2377197     -5.2936676      0             -3.4379331      2.3695867    
     10750   1.2570691     -5.3227722      0             -3.4380268      2.2460921    
     10760   1.2757896     -5.3511892      0             -3.4383759      2.1307807    
     10770   1.2802152     -5.3579218      0             -3.4384732      2.0726174    
     10780   1.2745385     -5.3495946      0             -3.4386571      2.099319     
     10790   1.2530203     -5.3166948      0             -3.4380198      2.238595     
     10800   1.2530876     -5.3172902      0             -3.4385143      2.2500319    
     10810   1.2670329     -5.338879       0             -3.4391947      2.1664923    
     10820   1.2604283     -5.3286925      0             -3.4389107      2.1976449    
     10830   1.2361365     -5.2921462      0             -3.4387855      2.3616829    
     10840   1.2394906     -5.2967707      0             -3.438381       2.3494931    
     10850   1.267602      -5.3389139      0             -3.4383764      2.1762731    
     10860   1.271689      -5.3446394      0             -3.4379742      2.1567139    
     10870   1.2519092     -5.3151546      0             -3.4381454      2.2653009    
     10880   1.2763927     -5.3524933      0             -3.4387757      2.1130224    
     10890   1.2594812     -5.3262302      0             -3.4378683      2.208532     
     10900   1.2277136     -5.2788278      0             -3.4380956      2.3915764    
     10910   1.2535243     -5.3176481      0             -3.4382176      2.2709963    
     10920   1.2374773     -5.2937237      0             -3.4383527      2.3666517    
     10930   1.253492      -5.3184521      0             -3.4390699      2.3020808    
     10940   1.2380751     -5.2959842      0             -3.4397168      2.3827616    
     10950   1.2404193     -5.2989203      0             -3.4391382      2.3508039    
     10960   1.2675694     -5.339775       0             -3.4392864      2.1737179    
     10970   1.2660851     -5.3369782      0             -3.4387149      2.1695165    
     10980   1.2403949     -5.2981887      0             -3.4384433      2.2912298    
     10990   1.2783368     -5.354828       0             -3.4381956      2.0995011    
     11000   1.2510074     -5.3134637      0             -3.4378067      2.2737016    
     11010   1.2638672     -5.3329882      0             -3.4380502      2.2474308    
     11020   1.244708      -5.3048505      0             -3.4386383      2.356831     
     11030   1.2623445     -5.3313227      0             -3.4386678      2.2539098    
     11040   1.2704706     -5.3429712      0             -3.4381327      2.1972129    
     11050   1.2569793     -5.322186       0             -3.4375753      2.262168     
     11060   1.2687847     -5.3408747      0             -3.4385639      2.1933181    
     11070   1.2509334     -5.3133845      0             -3.4378384      2.3048908    
     11080   1.2413139     -5.2994061      0             -3.4382828      2.363582     
     11090   1.2632495     -5.3328586      0             -3.4388468      2.2165104    
     11100   1.272232      -5.3455905      0             -3.4381111      2.1379393    
     11110   1.2622111     -5.3304513      0             -3.4379965      2.1973572    
     11120   1.2682715     -5.339668       0             -3.4381266      2.1879783    
     11130   1.2501307     -5.3123162      0             -3.4379738      2.2922114    
     11140   1.2743903     -5.349989       0             -3.4392736      2.1368525    
     11150   1.2897117     -5.3731774      0             -3.4394904      2.0409339    
     11160   1.2647357     -5.3355357      0             -3.4392957      2.1770424    
     11170   1.2675402     -5.3395996      0             -3.4391548      2.1698995    
     11180   1.2453315     -5.3061429      0             -3.4389958      2.2696089    
     11190   1.2603854     -5.3286477      0             -3.4389302      2.1898995    
     11200   1.2603484     -5.3284658      0             -3.4388038      2.1795443    
     11210   1.2682311     -5.3402011      0             -3.4387203      2.1225966    
     11220   1.2541865     -5.3190579      0             -3.4386345      2.2141638    
     11230   1.2645186     -5.3346851      0             -3.4387706      2.1614473    
     11240   1.2708175     -5.344314       0             -3.4389554      2.1196739    
     11250   1.258151      -5.3259985      0             -3.4396309      2.1894383    
     11260   1.254294      -5.3198833      0             -3.4392986      2.2211945    
     11270   1.2544513     -5.3200374      0             -3.439217       2.2294423    
     11280   1.2546542     -5.3206831      0             -3.4395584      2.2388393    
     11290   1.2541801     -5.3194194      0             -3.4390055      2.2638756    
     11300   1.2638711     -5.3338534      0             -3.4389096      2.2258334    
     11310   1.2459964     -5.3075114      0             -3.4393675      2.3269655    
     11320   1.2528081     -5.3182883      0             -3.4399316      2.2512996    
     11330   1.2688296     -5.34182        0             -3.439442       2.142863     
     11340   1.2350459     -5.2902761      0             -3.4385505      2.3512435    
     11350   1.2663655     -5.3377308      0             -3.4390472      2.2351005    
     11360   1.2365816     -5.2923039      0             -3.4382758      2.407438     
     11370   1.2589669     -5.3261296      0             -3.4385388      2.260412     
     11380   1.2483326     -5.3100584      0             -3.4384117      2.2872256    
     11390   1.2854669     -5.3656194      0             -3.4382968      2.1101158    
     11400   1.258971      -5.3264253      0             -3.4388283      2.2697177    
     11410   1.2533341     -5.317397       0             -3.4382516      2.2895296    
     11420   1.2807469     -5.3586577      0             -3.4384118      2.1401196    
     11430   1.2629559     -5.3323255      0             -3.4387539      2.2331019    
     11440   1.2616121     -5.3307543      0             -3.4391976      2.2093456    
     11450   1.2647656     -5.3353211      0             -3.4390362      2.178524     
     11460   1.2528852     -5.3172061      0             -3.4387338      2.249232     
     11470   1.2671001     -5.3387631      0             -3.4389781      2.1743029    
     11480   1.2672602     -5.3397479      0             -3.4397229      2.1369237    
     11490   1.282429      -5.362268       0             -3.4395001      2.0181429    
     11500   1.2792387     -5.3569434      0             -3.4389587      2.0365079    
     11510   1.242992      -5.3020234      0             -3.438384       2.2597427    
     11520   1.2491368     -5.3108793      0             -3.4380269      2.2338565    
     11530   1.2450124     -5.3050499      0             -3.4383814      2.2467236    
     11540   1.2551702     -5.3204203      0             -3.438522       2.1913443    
     11550   1.2428772     -5.3020482      0             -3.438581       2.2859797    
     11560   1.2419517     -5.3004386      0             -3.4383589      2.3022929    
     11570   1.2562996     -5.3222053      0             -3.4386137      2.2188389    
     11580   1.2491359     -5.3120079      0             -3.4391568      2.2312962    
     11590   1.26356       -5.3334393      0             -3.438962       2.1443716    
     11600   1.2473107     -5.308261       0             -3.4381465      2.2464147    
     11610   1.2877514     -5.3698433      0             -3.4390954      2.0537056    
     11620   1.2735295     -5.348456       0             -3.4390313      2.1438944    
     11630   1.2751448     -5.350892       0             -3.4390453      2.1606472    
     11640   1.2525795     -5.3164679      0             -3.4384538      2.3069756    
     11650   1.2638729     -5.3332962      0             -3.4383498      2.2588725    
     11660   1.2434977     -5.3034097      0             -3.4390121      2.3492674    
     11670   1.2644682     -5.3344542      0             -3.4386152      2.212262     
     11680   1.2629802     -5.3325129      0             -3.4389049      2.214782     
     11690   1.2543171     -5.3200504      0             -3.4394311      2.2717534    
     11700   1.2581879     -5.3256869      0             -3.4392641      2.2402962    
     11710   1.2765126     -5.3530733      0             -3.4391759      2.1178256    
     11720   1.2687982     -5.3417055      0             -3.4393745      2.1466752    
     11730   1.2777302     -5.3544337      0             -3.4387108      2.1097684    
     11740   1.2680977     -5.3395437      0             -3.4382629      2.1854493    
     11750   1.253622      -5.3175098      0             -3.4379327      2.2606318    
     11760   1.2521615     -5.3164434      0             -3.4390561      2.2643784    
     11770   1.2502137     -5.3137325      0             -3.4392655      2.2746486    
     11780   1.2568461     -5.3241142      0             -3.4397033      2.2262529    
     11790   1.2540223     -5.3196551      0             -3.4394778      2.211931     
     11800   1.2395142     -5.2977023      0             -3.4392772      2.299684     
     11810   1.2507299     -5.3144633      0             -3.4392225      2.2545493    
     11820   1.247214      -5.3090238      0             -3.4390544      2.2759855    
     11830   1.2510687     -5.3150949      0             -3.439346       2.2563667    
     11840   1.2574014     -5.3243325      0             -3.4390889      2.2138941    
     11850   1.2535811     -5.3174648      0             -3.437949       2.2333695    
     11860   1.2554602     -5.3206316      0             -3.4382985      2.2480708    
     11870   1.2406025     -5.2992935      0             -3.4392368      2.3247803    
     11880   1.2491994     -5.3120577      0             -3.4391116      2.2640951    
     11890   1.2627314     -5.3316898      0             -3.4384548      2.1674334    
     11900   1.269233      -5.3412678      0             -3.4382848      2.1521552    
     11910   1.2511626     -5.3146787      0             -3.4387891      2.2659393    
     11920   1.2583155     -5.3259976      0             -3.4393835      2.2204166    
     11930   1.2391858     -5.2964032      0             -3.4384706      2.3261388    
     11940   1.2438359     -5.303002       0             -3.4380974      2.2915067    
     11950   1.2663069     -5.3373357      0             -3.4387399      2.1518905    
     11960   1.2696979     -5.3423809      0             -3.4387009      2.1349229    
     11970   1.2564244     -5.3222023      0             -3.4384236      2.2041523    
     11980   1.2522286     -5.315718       0             -3.4382301      2.2078338    
     11990   1.2700572     -5.3431834      0             -3.4389648      2.1126585    
     12000   1.2401472     -5.2985489      0             -3.4391747      2.2838511    
Loop time of 15.0271 on 1 procs for 10000 steps with 2197 atoms

Performance: 287480.487 tau/day, 665.464 timesteps/s, 1.462 Matom-step/s
99.9% CPU use with 1 MPI tasks x no OpenMP threads

MPI task timing breakdown:
Section |  min time  |  avg time  |  max time  |%varavg| %total
---------------------------------------------------------------
Pair    | 11.356     | 11.356     | 11.356     |   0.0 | 75.57
Neigh   | 3.1422     | 3.1422     | 3.1422     |   0.0 | 20.91
Comm    | 0.20551    | 0.20551    | 0.20551    |   0.0 |  1.37
Output  | 0.0068515  | 0.0068515  | 0.0068515  |   0.0 |  0.05
Modify  | 0.2433     | 0.2433     | 0.2433     |   0.0 |  1.62
Other   |            | 0.07329    |            |       |  0.49

Nlocal:           2197 ave        2197 max        2197 min
Histogram: 1 0 0 0 0 0 0 0 0 0
Nghost:           3810 ave        3810 max        3810 min
Histogram: 1 0 0 0 0 0 0 0 0 0
Neighs:          78813 ave       78813 max       78813 min
Histogram: 1 0 0 0 0 0 0 0 0 0

Total # of neighbors = 78813
Ave neighs/atom = 35.873009
Neighbor list builds = 1490
Dangerous builds = 0
Total wall time: 0:00:17
