LAMMPS (3 Aug 2023 - Development - )
#-------------------------------------------------------------------------------
# Example LAMMPS script for running a Lennard-Jones molecular dynamics
# simulation at constant volume with the NVE ensemble. The system is
# equilibrated with the NVT ensemble and then time-integrated with NVE.
#-------------------------------------------------------------------------------

#===============================================================================
# Setup the simulation
#===============================================================================

#-----------------------------------------
#  define units for parameters and output
#-----------------------------------------
units       lj

#---------------------------------------
#  specify periodic boundary conditions
#---------------------------------------
boundary p p p

# define atom_style
# full covers everything
# atom_style full

#----------------------------------------------------------------
#  define simulation volume
#  If I want N = 512 atoms
#  and I want a density of rho = 0.5 atoms/lj-sigma^3
#  Then I can determine the size of a cube by
#  size = (N/rho)^(1/3)
#----------------------------------------------------------------
variable side      equal 14
region      boxid block 0.0 ${side} 0.0 ${side} 0.0 ${side}
region      boxid block 0.0 14 0.0 ${side} 0.0 ${side}
region      boxid block 0.0 14 0.0 14 0.0 ${side}
region      boxid block 0.0 14 0.0 14 0.0 14
create_box  1 boxid
Created orthogonal box = (0 0 0) to (14 14 14)
  1 by 1 by 1 MPI processor grid

#-------------------------------------------------------------------------------
#  specify initial positions of atoms
#  sc = simple cubic
#  0.5 = density in lj units
#-------------------------------------------------------------------------------
lattice     sc 0.75
Lattice spacing in x,y,z = 1.1006424 1.1006424 1.1006424

#-------------------------------------------------------------------------------
#  place atoms of type 1 in boxid
#-------------------------------------------------------------------------------
create_atoms    1 box
Created 2197 atoms
  using lattice units in orthogonal box = (0 0 0) to (14 14 14)
  create_atoms CPU = 0.000 seconds

#-------------------------------------------------------------------------------
#   define mass of atom type 1 (m/m =1 in reduced units)
#-------------------------------------------------------------------------------
mass        1 1.0

#-------------------------------------------------------------------------------
#  specify initial velocity of atoms
#  group = all
#  reduced temperature is T = 1.0 = lj-eps/kb
#  seed for random number generator
#  distribution is gaussian (e.g. Maxwell-Boltzmann)
#-------------------------------------------------------------------------------
velocity    all create 2.00 87287 dist gaussian

#-------------------------------------------------------------------------------
#  specify interaction potential
#  pairwise interaction via the Lennard-Jones potential with a cut-off at 2.5 lj-sigma
#-------------------------------------------------------------------------------
pair_style  lj/cut 2.5

#-------------------------------------------------------------------------------
#  specify parameters between atoms of type 1 with an atom of type 1
#  epsilon = 1.0, sigma = 1.0, cutoff = 2.5 in reduced units
#-------------------------------------------------------------------------------
pair_coeff  1 1 1.0 1.0 2.5

#-------------------------------------------------------------------------------
# add long-range tail correction
#-------------------------------------------------------------------------------
pair_modify tail yes

#-------------------------------------------------------------------------------
#  specify parameters for neighbor list
#  rnbr = rcut + 0.3
#-------------------------------------------------------------------------------
neighbor    0.3 bin

#-------------------------------------------------------------------------------
#  specify thermodynamic properties to be output
#  pe = potential energy
#  ke = kinetic energy
#  etotal = pe + ke
#  temp = temperature
#  press = pressure
#  density = number density
#  output every thousand steps
#  norm = normalize by # of atoms (yes or no)
#-------------------------------------------------------------------------------
#thermo_style custom step pe ke etotal temp press

#-------------------------------------------------------------------------------
# report instantaneous thermo values every 10 steps
#-------------------------------------------------------------------------------
thermo 10

#-------------------------------------------------------------------------------
# normalize thermo properties by number of atoms (yes or no)
#-------------------------------------------------------------------------------
thermo_modify norm yes

#-------------------
#  define time step
#-------------------
timestep 0.005

#===============================================================================
# System equilibration
#===============================================================================

#------------------------------------------------
#  specify NVE ensemble for all atoms and ID = 1
#------------------------------------------------
fix     1 all nve

#--------------------------------------------------------------
# run 1000 steps in the NVE ensemble to equilibrate positions
#--------------------------------------------------------------
run 1000
Generated 0 of 0 mixed pair_coeff terms from geometric mixing rule
Neighbor list info ...
  update: every = 1 steps, delay = 0 steps, check = yes
  max neighbors/atom: 2000, page size: 100000
  master list distance cutoff = 2.8
  ghost atom cutoff = 2.8
  binsize = 1.4, bins = 10 10 10
  1 neighbor lists, perpetual/occasional/extra = 1 0 0
  (1) pair lj/cut, perpetual
      attributes: half, newton on
      pair build: half/bin/atomonly/newton
      stencil: half/bin/3d
      bin: standard
Per MPI rank memory allocation (min/avg/max) = 3.241 | 3.241 | 3.241 Mbytes
   Step          Temp          E_pair         E_mol          TotEng         Press     
         0   2              5.5678596      0              8.5664941      40.67324     
        10   5.7077861     -0.3013909      0              8.2563913      25.032409    
        20   6.5567459     -1.5864133      0              8.244229       21.803008    
        30   6.9083639     -2.106923       0              8.2509062      20.434491    
        40   6.9666168     -2.1943746      0              8.2507942      20.377949    
        50   6.920521      -2.1265514      0              8.2495051      20.810898    
        60   6.7187211     -1.8286697      0              8.2448248      21.938363    
        70   6.4678734     -1.4547811      0              8.2426132      23.34451     
        80   6.3312318     -1.2511818      0              8.2413432      24.137352    
        90   6.4714044     -1.4621853      0              8.240503       23.495234    
       100   6.5802563     -1.6238315      0              8.2420603      22.860028    
       110   6.6905926     -1.7855036      0              8.2458173      22.129637    
       120   6.7241269     -1.8314591      0              8.2501403      21.76161     
       130   6.8347341     -1.9945684      0              8.2528664      20.998515    
       140   6.9775417     -2.206048       0              8.2555007      20.089324    
       150   7.0101946     -2.2544294      0              8.2560762      19.743436    
       160   7.091242      -2.3731935      0              8.258828       19.206425    
       170   6.9911663     -2.226221       0              8.2557552      19.661528    
       180   6.852251      -2.0178127      0              8.2558854      20.304649    
       190   7.0132913     -2.2551018      0              8.2600469      19.477018    
       200   6.8288246     -1.9846072      0              8.2539673      20.418816    
       210   6.8468215     -2.0138779      0              8.2516797      20.334606    
       220   6.7951285     -1.9279182      0              8.2601352      20.666127    
       230   6.8343132     -1.9923123      0              8.2544913      20.54233     
       240   6.9401009     -2.1503551      0              8.2550578      19.919874    
       250   6.8081469     -1.9531627      0              8.2544094      20.508318    
       260   6.9404469     -2.1442223      0              8.2617095      19.859894    
       270   7.0226095     -2.2724031      0              8.2567164      19.475994    
       280   6.866263      -2.0368378      0              8.2578687      20.299943    
       290   6.857671      -2.0209108      0              8.2609137      20.347171    
       300   6.8691364     -2.0404784      0              8.2585363      20.327262    
       310   6.851119      -2.0155852      0              8.2564157      20.413713    
       320   6.7964365     -1.9326347      0              8.2573798      20.671762    
       330   6.8330386     -1.9885607      0              8.2563319      20.5792      
       340   6.8572885     -2.0284163      0              8.2528347      20.48467     
       350   6.8130058     -1.9596724      0              8.2551847      20.661873    
       360   6.8243199     -1.9775235      0              8.254297       20.589277    
       370   6.7996083     -1.9383939      0              8.2563761      20.787073    
       380   6.7838446     -1.9146002      0              8.2565351      20.822898    
       390   6.9372577     -2.1470594      0              8.2540907      19.890445    
       400   6.9534873     -2.1679822      0              8.2575013      19.827841    
       410   6.8775418     -2.0538756      0              8.2577414      20.240005    
       420   6.903577      -2.0956109      0              8.2550412      20.090024    
       430   6.9316093     -2.1332304      0              8.259451       19.976309    
       440   6.8211871     -1.9689054      0              8.2582181      20.434101    
       450   6.8402339     -1.9988261      0              8.2568546      20.373528    
       460   6.8973971     -2.0843776      0              8.2570089      20.083241    
       470   6.9053633     -2.0964929      0              8.2568373      20.06493     
       480   6.8067487     -1.9479064      0              8.2575694      20.56627     
       490   6.8004838     -1.9380777      0              8.2580049      20.607036    
       500   6.7849448     -1.9189454      0              8.2538393      20.676349    
       510   7.0303744     -2.2855893      0              8.2551724      19.496461    
       520   6.7436944     -1.8565914      0              8.254346       20.873146    
       530   6.8230036     -1.9732237      0              8.2566233      20.487972    
       540   6.9052851     -2.0926411      0              8.2605719      20.031486    
       550   6.8511381     -2.0163257      0              8.2557039      20.291603    
       560   6.8235657     -1.9737235      0              8.2569662      20.421946    
       570   6.8783327     -2.0581386      0              8.2546643      20.19266     
       580   6.7742457     -1.8980837      0              8.2586597      20.689891    
       590   6.7742335     -1.9041133      0              8.2526119      20.633716    
       600   6.888589      -2.0716892      0              8.2564911      20.093181    
       610   6.8466529     -2.0093257      0              8.2559792      20.339944    
       620   6.84367       -2.0030548      0              8.2577777      20.4197      
       630   6.8503295     -2.0135043      0              8.2573128      20.431054    
       640   6.8076292     -1.9506215      0              8.2561745      20.540505    
       650   6.9031215     -2.0905828      0              8.2593863      20.103349    
       660   6.7818391     -1.9114192      0              8.2567092      20.757246    
       670   6.8277094     -1.9780628      0              8.2588396      20.460592    
       680   6.8886965     -2.0700279      0              8.2583136      20.067454    
       690   6.8773111     -2.0521412      0              8.25913        20.130723    
       700   6.8736588     -2.0529517      0              8.2528434      20.225078    
       710   6.9063044     -2.0986209      0              8.2561204      20.043961    
       720   6.7539019     -1.8689606      0              8.2572811      20.807084    
       730   6.8334424     -1.9907192      0              8.2547789      20.408286    
       740   6.8185217     -1.9685661      0              8.2545611      20.499421    
       750   6.8159256     -1.9585549      0              8.26068        20.551481    
       760   6.7883074     -1.9179089      0              8.2599175      20.720126    
       770   6.8678004     -2.0375367      0              8.2594749      20.299215    
       780   6.8141036     -1.9587022      0              8.2578009      20.545143    
       790   6.8860237     -2.0659358      0              8.2583984      20.199311    
       800   6.7524995     -1.8624732      0              8.2616658      20.864996    
       810   6.7839254     -1.9119796      0              8.2592768      20.619837    
       820   6.8106575     -1.9548063      0              8.2565299      20.45764     
       830   6.8015914     -1.9406146      0              8.2571287      20.475736    
       840   6.9429637     -2.1512162      0              8.258489       19.876974    
       850   6.8533643     -2.0210858      0              8.2542816      20.33976     
       860   6.8467428     -2.0113572      0              8.2540824      20.272144    
       870   6.836303      -1.9979323      0              8.2518548      20.331259    
       880   6.7865196     -1.9194358      0              8.2557101      20.65128     
       890   6.8367914     -1.9909262      0              8.2595931      20.379765    
       900   6.7843184     -1.9142522      0              8.2575934      20.624361    
       910   6.9049039     -2.0943137      0              8.2583279      20.028062    
       920   6.8195196     -1.9684214      0              8.256202       20.37476     
       930   6.8528056     -2.0151345      0              8.2593952      20.278399    
       940   6.9199444     -2.115053       0              8.260139       19.965874    
       950   6.831348      -1.984233       0              8.258125       20.330473    
       960   6.8595129     -2.0259074      0              8.2586785      20.185083    
       970   6.743146      -1.8492268      0              8.2608884      20.875599    
       980   6.8368379     -1.992212       0              8.258377       20.356037    
       990   6.8131581     -1.957513       0              8.2575724      20.586568    
      1000   6.7975299     -1.9363321      0              8.2553217      20.605611    
Loop time of 1.6219 on 1 procs for 1000 steps with 2197 atoms

Performance: 266354.909 tau/day, 616.562 timesteps/s, 1.355 Matom-step/s
100.0% CPU use with 1 MPI tasks x no OpenMP threads

MPI task timing breakdown:
Section |  min time  |  avg time  |  max time  |%varavg| %total
---------------------------------------------------------------
Pair    | 0.82465    | 0.82465    | 0.82465    |   0.0 | 50.84
Neigh   | 0.74158    | 0.74158    | 0.74158    |   0.0 | 45.72
Comm    | 0.032561   | 0.032561   | 0.032561   |   0.0 |  2.01
Output  | 0.00080958 | 0.00080958 | 0.00080958 |   0.0 |  0.05
Modify  | 0.012535   | 0.012535   | 0.012535   |   0.0 |  0.77
Other   |            | 0.009763   |            |       |  0.60

Nlocal:           2197 ave        2197 max        2197 min
Histogram: 1 0 0 0 0 0 0 0 0 0
Nghost:           3901 ave        3901 max        3901 min
Histogram: 1 0 0 0 0 0 0 0 0 0
Neighs:          79726 ave       79726 max       79726 min
Histogram: 1 0 0 0 0 0 0 0 0 0

Total # of neighbors = 79726
Ave neighs/atom = 36.288575
Neighbor list builds = 333
Dangerous builds = 0

#------------------------------------------------
#  stop fix (ID 1) to change the thermostat
#------------------------------------------------
unfix 1

#--------------------------------------------------------------
# Specify NVT ensemble to set a desired temperature and ID = 2
#--------------------------------------------------------------
#  ensemble = nvt (Nose-Hoover)
#  temp = temperature
#  initial temperature = 1.0
#  final temperature = 1.0
#  thermostat controller gain = 0.1 (units of time, bigger is less tight control)
#--------------------------------------------------------------
fix     2 all nvt temp 2.00 2.00 0.1

#--------------------------------------------------------------
# run 1000 steps in the NVT ensemble to equilibrate thermostat
#--------------------------------------------------------------
run     1000
Generated 0 of 0 mixed pair_coeff terms from geometric mixing rule
Per MPI rank memory allocation (min/avg/max) = 3.244 | 3.244 | 3.244 Mbytes
   Step          Temp          E_pair         E_mol          TotEng         Press     
      1000   6.7975299     -1.9363321      0              8.2553217      20.605611    
      1010   5.8606649     -2.2915137      0              6.4954822      18.439937    
      1020   4.8768423     -2.7857812      0              4.5261526      15.752399    
      1030   4.1250985     -3.3281397      0              2.8566916      12.949063    
      1040   3.4442175     -3.6037666      0              1.5602082      11.305882    
      1050   2.9650983     -3.9024742      0              0.54314884     9.6896215    
      1060   2.6261855     -4.1906549      0             -0.25316965     8.234645     
      1070   2.3442494     -4.3813284      0             -0.86655483     7.2172795    
      1080   2.1317134     -4.5333754      0             -1.3372608      6.4068822    
      1090   2.0324553     -4.7309415      0             -1.6836462      5.468652     
      1100   1.8989271     -4.7839799      0             -1.9368857      5.0935415    
      1110   1.830206      -4.8279922      0             -2.0839327      4.8445132    
      1120   1.8318853     -4.8604825      0             -2.1139052      4.6919826    
      1130   1.8874033     -4.8624263      0             -2.0326101      4.7337734    
      1140   1.9261472     -4.763414       0             -1.8755083      5.1819719    
      1150   2.0608388     -4.7813101      0             -1.6914589      5.253741     
      1160   2.0631816     -4.6451412      0             -1.5517774      5.8013482    
      1170   2.178203      -4.7462745      0             -1.4804572      5.4639113    
      1180   2.0788929     -4.6473112      0             -1.5303913      5.7798169    
      1190   2.0462709     -4.7175859      0             -1.6495766      5.4792511    
      1200   1.9843513     -4.7618773      0             -1.7867051      5.2160954    
      1210   1.9202735     -4.7752878      0             -1.8961887      5.1378396    
      1220   1.9119423     -4.8211635      0             -1.9545554      4.9930611    
      1230   1.9189122     -4.8311142      0             -1.9540561      4.9655564    
      1240   1.906054      -4.7490493      0             -1.8912696      5.2571473    
      1250   2.0168832     -4.7996002      0             -1.7756524      5.1690389    
      1260   2.0327306     -4.7096986      0             -1.6619905      5.551491     
      1270   2.1080608     -4.735402       0             -1.57475        5.5279115    
      1280   2.0755113     -4.6696831      0             -1.5578333      5.741075     
      1290   2.053296      -4.6862115      0             -1.6076694      5.6710914    
      1300   2.0167254     -4.7169139      0             -1.6932027      5.5167842    
      1310   1.958126      -4.7193871      0             -1.7835351      5.4733004    
      1320   1.9433861     -4.7620696      0             -1.8483172      5.2989777    
      1330   1.9340645     -4.7719078      0             -1.8721316      5.1931232    
      1340   1.9800614     -4.8238997      0             -1.8551595      4.9725441    
      1350   1.9452592     -4.7310821      0             -1.8145215      5.3090939    
      1360   2.0165671     -4.7681497      0             -1.7446759      5.2422944    
      1370   2.0483205     -4.7469518      0             -1.6758695      5.3336539    
      1380   2.0765805     -4.7638177      0             -1.6503647      5.3068672    
      1390   2.0343378     -4.7323779      0             -1.6822602      5.4424061    
      1400   1.9810428     -4.70972        0             -1.7395084      5.5190892    
      1410   1.9722548     -4.7415093      0             -1.7844737      5.3764675    
      1420   1.9782707     -4.7735699      0             -1.8075146      5.2180071    
      1430   1.9618244     -4.7592717      0             -1.8178745      5.2849626    
      1440   1.9865481     -4.785234       0             -1.8067682      5.1711014    
      1450   2.0458205     -4.8574256      0             -1.7900916      4.8620831    
      1460   2.0035599     -4.803563       0             -1.7995911      5.0414972    
      1470   1.954767      -4.7486773      0             -1.8178614      5.2766078    
      1480   1.980757      -4.7805074      0             -1.8107243      5.1903742    
      1490   1.9836733     -4.7512862      0             -1.7771306      5.2948369    
      1500   1.9999345     -4.7350843      0             -1.736548       5.3865679    
      1510   2.0202554     -4.7311654      0             -1.7021616      5.4719386    
      1520   2.0431991     -4.7461373      0             -1.6827337      5.4314775    
      1530   2.0189437     -4.7177986      0             -1.6907615      5.4958306    
      1540   2.0178565     -4.745301       0             -1.7198938      5.335937     
      1550   1.9883499     -4.747618       0             -1.7664507      5.2966185    
      1560   1.9994822     -4.8114143      0             -1.8135562      5.0628402    
      1570   1.9769733     -4.8204749      0             -1.8563648      5.0274649    
      1580   1.9138821     -4.7456884      0             -1.8761719      5.3011072    
      1590   1.9419629     -4.7546735      0             -1.843055       5.2834544    
      1600   1.995859      -4.7588843      0             -1.7664584      5.3031939    
      1610   2.0356557     -4.7381905      0             -1.6860968      5.3988839    
      1620   2.0672438     -4.7333232      0             -1.6338689      5.4295068    
      1630   2.0626399     -4.7243376      0             -1.631786       5.4735733    
      1640   2.0432937     -4.7344603      0             -1.6709148      5.4314104    
      1650   1.9961673     -4.7298875      0             -1.7369994      5.3984774    
      1660   1.9532521     -4.7308933      0             -1.8023487      5.340949     
      1670   1.955705      -4.7712646      0             -1.8390425      5.1992413    
      1680   1.9701008     -4.7972395      0             -1.8434335      5.1072197    
      1690   2.0022026     -4.827551       0             -1.8256141      5.0124735    
      1700   1.9795943     -4.7698401      0             -1.8018003      5.2398222    
      1710   2.0140922     -4.7869999      0             -1.7672368      5.188527     
      1720   1.9974104     -4.7352447      0             -1.7404928      5.3759393    
      1730   2.0140415     -4.7372503      0             -1.7175631      5.3747659    
      1740   2.0226927     -4.7421352      0             -1.7094771      5.351609     
      1750   1.9972943     -4.7150306      0             -1.7204528      5.4410958    
      1760   1.9887708     -4.7214503      0             -1.7396519      5.4814162    
      1770   2.0066642     -4.7616326      0             -1.7530063      5.3645387    
      1780   2.007305      -4.7778648      0             -1.7682778      5.2921653    
      1790   1.9872107     -4.7675519      0             -1.7880925      5.3096256    
      1800   2.0059704     -4.8095314      0             -1.8019454      5.1408356    
      1810   1.9613694     -4.7493928      0             -1.8086778      5.3494786    
      1820   2.0061624     -4.7986458      0             -1.7907719      5.1734824    
      1830   1.9861523     -4.7465881      0             -1.7687157      5.3594868    
      1840   2.0353481     -4.7975135      0             -1.745881       5.1691124    
      1850   2.0148493     -4.7603846      0             -1.7394862      5.2840192    
      1860   2.0333919     -4.7917234      0             -1.7430238      5.1837922    
      1870   2.0198034     -4.8000004      0             -1.7716744      5.1602112    
      1880   1.9816733     -4.7797356      0             -1.8085786      5.2194231    
      1890   1.9965624     -4.8245726      0             -1.8310922      5.0395746    
      1900   1.9592319     -4.7877091      0             -1.8501989      5.1415631    
      1910   1.9876577     -4.8269219      0             -1.8467924      4.9679055    
      1920   2.0059328     -4.8386222      0             -1.8310926      4.9489755    
      1930   2.0067017     -4.8270855      0             -1.818403       5.0124353    
      1940   1.9817913     -4.7777105      0             -1.8063766      5.1790346    
      1950   1.9865451     -4.7591837      0             -1.7807223      5.2625111    
      1960   1.9890221     -4.7282721      0             -1.746097       5.3935076    
      1970   1.9948833     -4.6983361      0             -1.7073731      5.4832913    
      1980   2.0534027     -4.751681       0             -1.6729788      5.3256723    
      1990   2.0353591     -4.7163215      0             -1.6646725      5.4748101    
      2000   2.0126008     -4.7043032      0             -1.6867761      5.5631873    
Loop time of 1.21765 on 1 procs for 1000 steps with 2197 atoms

Performance: 354781.595 tau/day, 821.254 timesteps/s, 1.804 Matom-step/s
100.0% CPU use with 1 MPI tasks x no OpenMP threads

MPI task timing breakdown:
Section |  min time  |  avg time  |  max time  |%varavg| %total
---------------------------------------------------------------
Pair    | 0.77037    | 0.77037    | 0.77037    |   0.0 | 63.27
Neigh   | 0.39343    | 0.39343    | 0.39343    |   0.0 | 32.31
Comm    | 0.022581   | 0.022581   | 0.022581   |   0.0 |  1.85
Output  | 0.00070409 | 0.00070409 | 0.00070409 |   0.0 |  0.06
Modify  | 0.02193    | 0.02193    | 0.02193    |   0.0 |  1.80
Other   |            | 0.008641   |            |       |  0.71

Nlocal:           2197 ave        2197 max        2197 min
Histogram: 1 0 0 0 0 0 0 0 0 0
Nghost:           3764 ave        3764 max        3764 min
Histogram: 1 0 0 0 0 0 0 0 0 0
Neighs:          79100 ave       79100 max       79100 min
Histogram: 1 0 0 0 0 0 0 0 0 0

Total # of neighbors = 79100
Ave neighs/atom = 36.003641
Neighbor list builds = 184
Dangerous builds = 0

#===============================================================================
# Production phase
#===============================================================================
variable          tm    equal step
variable          Et    equal etotal
variable          Ep    equal pe
variable          Ek    equal ke
variable          tmp   equal temp
variable          pr    equal press

fix statdump all print 1 "${tm} ${Et} ${Ep} ${Ek} ${tmp} ${pr}" screen no file output.txt

#--------------------------------------------------------------
# reset thermostat to NVE and run a larger number of steps
#--------------------------------------------------------------
unfix 2
fix 3 all nve


#-----------------------------------
#   save configurations
#   dumpid = 1
#   all atoms
#   atomic symbol is Ar
#   save positions every 100 steps
#   filename = output.xyz
#
#----------------------------------
#dump 1 all xyz 100 output.xyz
#dump_modify 1 element Ar

#------------------------------------------
# run 10000 more steps in the NVT ensemble
#------------------------------------------
run     10000
Generated 0 of 0 mixed pair_coeff terms from geometric mixing rule
Per MPI rank memory allocation (min/avg/max) = 3.244 | 3.244 | 3.244 Mbytes
   Step          Temp          E_pair         E_mol          TotEng         Press     
      2000   2.0126008     -4.7043032      0             -1.6867761      5.5631873    
      2010   2.0387788     -4.7440323      0             -1.6872561      5.4190322    
      2020   2.0486566     -4.758408       0             -1.6868218      5.333562     
      2030   2.0310682     -4.7326372      0             -1.6874216      5.4603386    
      2040   2.0338833     -4.7375048      0             -1.6880685      5.4247749    
      2050   2.0328359     -4.7349128      0             -1.6870469      5.4043039    
      2060   2.0419783     -4.7483521      0             -1.6867788      5.3614564    
      2070   2.0183482     -4.7125949      0             -1.6864506      5.4886645    
      2080   2.0779425     -4.803238       0             -1.6877429      5.162377     
      2090   2.0370877     -4.7414774      0             -1.6872368      5.3654101    
      2100   2.0698238     -4.7904555      0             -1.687133       5.2085726    
      2110   2.0415206     -4.7479737      0             -1.6870866      5.3699732    
      2120   2.0758241     -4.7999547      0             -1.6876358      5.1648786    
      2130   2.0257211     -4.7245159      0             -1.6873173      5.424002     
      2140   2.0397091     -4.7461266      0             -1.6879555      5.3697763    
      2150   2.0161299     -4.7103355      0             -1.6875172      5.517688     
      2160   2.0380564     -4.7435611      0             -1.687868       5.4089825    
      2170   2.0262846     -4.7258511      0             -1.6878076      5.4644184    
      2180   2.0067237     -4.6963401      0             -1.6876246      5.5862006    
      2190   2.0031201     -4.6911735      0             -1.687861       5.5872393    
      2200   2.0040353     -4.6927406      0             -1.6880559      5.5388913    
      2210   2.0338681     -4.7373549      0             -1.6879414      5.3831111    
      2220   2.047947      -4.7589388      0             -1.6884166      5.3538689    
      2230   2.0108625     -4.7030226      0             -1.6881017      5.5590602    
      2240   2.0255605     -4.7253522      0             -1.6883943      5.4714078    
      2250   2.04009       -4.7469022      0             -1.6881601      5.4302432    
      2260   2.0251898     -4.7231348      0             -1.6867328      5.4995159    
      2270   2.0215442     -4.7179037      0             -1.6869676      5.4999503    
      2280   2.0543349     -4.767501       0             -1.6874013      5.3283871    
      2290   1.9977384     -4.6824478      0             -1.6872042      5.6697055    
      2300   2.0224482     -4.7194103      0             -1.6871188      5.5519977    
      2310   2.0276225     -4.7273199      0             -1.6872704      5.5053938    
      2320   2.0330885     -4.7355743      0             -1.6873297      5.4791186    
      2330   2.0059081     -4.6949868      0             -1.6874941      5.671134     
      2340   2.049565      -4.7616929      0             -1.6887448      5.4496965    
      2350   2.0348973     -4.7393957      0             -1.688439       5.4469788    
      2360   2.0635058     -4.7817734      0             -1.6879236      5.2235714    
      2370   2.0302974     -4.7314792      0             -1.6874192      5.3776171    
      2380   2.0568023     -4.7714073      0             -1.6876082      5.2334202    
      2390   2.0088862     -4.6993268      0             -1.687369       5.5014692    
      2400   2.0234808     -4.7214719      0             -1.6876323      5.4629315    
      2410   2.0256367     -4.7256343      0             -1.6885622      5.4852621    
      2420   2.0396316     -4.7456882      0             -1.6876334      5.4429848    
      2430   2.0234313     -4.7210767      0             -1.6873113      5.5237995    
      2440   2.0026884     -4.6904795      0             -1.6878143      5.5956549    
      2450   2.0265348     -4.7257295      0             -1.6873108      5.4858931    
      2460   1.9999625     -4.6860081      0             -1.6874298      5.6015771    
      2470   2.0478246     -4.7575852      0             -1.6872464      5.3406406    
      2480   2.0018787     -4.6883096      0             -1.6868584      5.5940861    
      2490   2.0152488     -4.7088159      0             -1.6873186      5.5358543    
      2500   2.0419516     -4.7491993      0             -1.6876661      5.4028765    
      2510   2.0019167     -4.6888251      0             -1.6873168      5.6153399    
      2520   2.0169894     -4.7109513      0             -1.6868444      5.54107      
      2530   2.0225602     -4.7199291      0             -1.6874697      5.5257959    
      2540   2.0331009     -4.7362547      0             -1.6879915      5.4804977    
      2550   2.0226165     -4.7195584      0             -1.6870147      5.4952899    
      2560   2.0178652     -4.7127997      0             -1.6873795      5.4583702    
      2570   2.0664625     -4.7857598      0             -1.6874769      5.2206245    
      2580   1.9972254     -4.6823398      0             -1.6878653      5.6120656    
      2590   2.0081637     -4.6986421      0             -1.6877676      5.5531985    
      2600   2.0085507     -4.6990215      0             -1.6875668      5.5210617    
      2610   2.0312578     -4.7335828      0             -1.6880829      5.4035831    
      2620   2.0054629     -4.694793       0             -1.6879679      5.5347096    
      2630   2.0245254     -4.7233587      0             -1.6879529      5.4309813    
      2640   2.0201528     -4.7171281      0             -1.6882781      5.4724152    
      2650   2.0316897     -4.7338605      0             -1.6877132      5.4362376    
      2660   1.9975221     -4.6824198      0             -1.6875004      5.6282494    
      2670   2.0203475     -4.7166309      0             -1.687489       5.5375813    
      2680   2.0384152     -4.7438941      0             -1.687663       5.4045567    
      2690   2.0421284     -4.7494533      0             -1.687655       5.368765     
      2700   2.0177964     -4.7124133      0             -1.6870964      5.4800359    
      2710   2.0466342     -4.7553026      0             -1.6867487      5.2995818    
      2720   2.0483791     -4.7582615      0             -1.6870914      5.2808792    
      2730   2.0304379     -4.7321502      0             -1.6878797      5.3846001    
      2740   2.0400506     -4.7457984      0             -1.6871152      5.3307138    
      2750   2.0479069     -4.7584741      0             -1.688012       5.3307963    
      2760   2.0538123     -4.7671618      0             -1.6878457      5.337695     
      2770   2.0630922     -4.7807548      0             -1.6875251      5.2916878    
      2780   2.0119777     -4.7028859      0             -1.6862931      5.5441147    
      2790   2.0325762     -4.733701       0             -1.6862245      5.4421116    
      2800   2.0341248     -4.7366597      0             -1.6868613      5.4348714    
      2810   2.0447257     -4.7526832      0             -1.6869907      5.3592288    
      2820   2.0322564     -4.734496       0             -1.6874989      5.4040551    
      2830   1.9939032     -4.6773246      0             -1.6878311      5.6262666    
      2840   2.0196122     -4.7159146      0             -1.6878751      5.506319     
      2850   2.0051992     -4.6937053      0             -1.6872755      5.5702262    
      2860   2.0355815     -4.7399071      0             -1.6879246      5.3822519    
      2870   2.0311299     -4.7331957      0             -1.6878876      5.4142068    
      2880   2.0583284     -4.7738512      0             -1.6877639      5.3068592    
      2890   2.0318258     -4.734678       0             -1.6883266      5.4707896    
      2900   1.9862886     -4.6661138      0             -1.688037       5.7257325    
      2910   2.0169171     -4.7121562      0             -1.6881576      5.5593086    
      2920   2.0238189     -4.7227985      0             -1.6884519      5.4871677    
      2930   2.0246526     -4.7228241      0             -1.6872274      5.4643538    
      2940   2.0422126     -4.7494718      0             -1.6875472      5.3313636    
      2950   1.9963697     -4.6805697      0             -1.6873783      5.5794642    
      2960   2.0216463     -4.7186953      0             -1.6876061      5.4841977    
      2970   2.0472734     -4.7561903      0             -1.686678       5.3706245    
      2980   2.0573322     -4.7716151      0             -1.6870214      5.3112432    
      2990   2.029094      -4.729437       0             -1.6871814      5.4943503    
      3000   1.9985527     -4.6835298      0             -1.6870653      5.6665057    
      3010   2.040282      -4.7454056      0             -1.6863756      5.4128999    
      3020   2.0653884     -4.7837675      0             -1.6870951      5.2364795    
      3030   2.0534915     -4.7658366      0             -1.6870014      5.2739777    
      3040   2.0045863     -4.6929005      0             -1.6873897      5.5277572    
      3050   2.037392      -4.7423577      0             -1.6876607      5.3626759    
      3060   2.0104951     -4.7013832      0             -1.6870133      5.5135329    
      3070   2.0251915     -4.7232741      0             -1.6868695      5.4469744    
      3080   2.065902      -4.7841289      0             -1.6866863      5.2769718    
      3090   2.0136959     -4.706552       0             -1.687383       5.5380195    
      3100   2.0317949     -4.7338686      0             -1.6875635      5.4286058    
      3110   2.0139636     -4.7075302      0             -1.6879598      5.5199653    
      3120   2.0233779     -4.7210424      0             -1.687357       5.4836791    
      3130   1.9990026     -4.6842136      0             -1.6870745      5.5987579    
      3140   2.028808      -4.7289302      0             -1.6871034      5.4163305    
      3150   2.0362851     -4.7405973      0             -1.6875599      5.3581226    
      3160   2.0219624     -4.7198096      0             -1.6882465      5.4521664    
      3170   2.0540548     -4.7677839      0             -1.6881041      5.2571266    
      3180   2.0618251     -4.7789889      0             -1.687659       5.2114478    
      3190   2.0535761     -4.7673744      0             -1.6884123      5.2840809    
      3200   2.0397613     -4.7462858      0             -1.6880364      5.4010457    
      3210   2.035177      -4.7393847      0             -1.6880087      5.4430052    
      3220   2.000203      -4.6866792      0             -1.6877403      5.6174718    
      3230   2.0394665     -4.7456749      0             -1.6878676      5.3842538    
      3240   2.0310384     -4.7339212      0             -1.6887503      5.4273398    
      3250   2.0583171     -4.7743782      0             -1.6883078      5.302238     
      3260   2.072297      -4.7950237      0             -1.6879931      5.2140476    
      3270   2.0459103     -4.7551462      0             -1.6876777      5.3855976    
      3280   1.9973216     -4.6825835      0             -1.6879647      5.6880202    
      3290   2.0166753     -4.7116911      0             -1.6880551      5.5876003    
      3300   2.0348105     -4.7380991      0             -1.6872727      5.4600255    
      3310   1.9930971     -4.674759       0             -1.686474       5.6702705    
      3320   2.0220047     -4.7182888      0             -1.6866623      5.5298059    
      3330   2.0454085     -4.7542458      0             -1.6875295      5.3996897    
      3340   2.0176238     -4.7119035      0             -1.6868454      5.5505167    
      3350   2.0023327     -4.6894248      0             -1.6872929      5.6357667    
      3360   2.01393       -4.7064406      0             -1.6869206      5.5658468    
      3370   2.0491939     -4.7591616      0             -1.6867698      5.342989     
      3380   2.0211884     -4.7178527      0             -1.68745        5.4548525    
      3390   2.0225583     -4.7198403      0             -1.6873837      5.4766638    
      3400   2.0332272     -4.7359621      0             -1.6875095      5.4129046    
      3410   2.0340453     -4.7376363      0             -1.6879571      5.4125836    
      3420   2.0598608     -4.77604        0             -1.6876552      5.2735079    
      3430   2.0285908     -4.7289673      0             -1.6874662      5.4179921    
      3440   2.0465713     -4.7563641      0             -1.6879045      5.3334168    
      3450   2.0257493     -4.7243444      0             -1.6871035      5.4310292    
      3460   2.0127165     -4.7049152      0             -1.6872146      5.4923559    
      3470   2.0735239     -4.7969688      0             -1.6880987      5.1999431    
      3480   2.0016508     -4.6886556      0             -1.6875461      5.5556363    
      3490   2.0887571     -4.819874       0             -1.6881644      5.0744592    
      3500   2.0780119     -4.8025799      0             -1.6869808      5.1426914    
      3510   2.04789       -4.7574701      0             -1.6870333      5.3264533    
      3520   2.0426162     -4.7506606      0             -1.6881309      5.3998202    
      3530   2.0315302     -4.7338488      0             -1.6879406      5.4656381    
      3540   2.0452943     -4.753391       0             -1.686846       5.3990663    
      3550   2.0138488     -4.7063596      0             -1.6869614      5.5705634    
      3560   2.0259679     -4.724764       0             -1.6871955      5.5166094    
      3570   2.0376252     -4.7423981      0             -1.6873515      5.4103727    
      3580   2.0323323     -4.7347914      0             -1.6876806      5.4148838    
      3590   2.0052379     -4.6940348      0             -1.687547       5.554136     
      3600   2.0206097     -4.7177812      0             -1.6882462      5.5034996    
      3610   1.9989228     -4.6850312      0             -1.6880118      5.632348     
      3620   2.0355423     -4.740068       0             -1.6881443      5.4171604    
      3630   2.0340952     -4.7376355      0             -1.6878815      5.4228059    
      3640   2.0425341     -4.7491376      0             -1.6867309      5.3852764    
      3650   2.0010238     -4.6886289      0             -1.6884594      5.6196623    
      3660   2.0339897     -4.737774       0             -1.6881782      5.4140286    
      3670   2.0238459     -4.7218846      0             -1.6874975      5.4570695    
      3680   2.0389389     -4.7454064      0             -1.6883901      5.3852777    
      3690   2.0182243     -4.7132705      0             -1.687312       5.4918145    
      3700   2.0486557     -4.7586717      0             -1.6870869      5.3315577    
      3710   2.0076319     -4.697589       0             -1.6875119      5.5589872    
      3720   2.0508326     -4.76265        0             -1.6878013      5.350546     
      3730   1.987555      -4.666948       0             -1.6869724      5.6855569    
      3740   2.0213381     -4.7180337      0             -1.6874066      5.5201552    
      3750   2.011779      -4.7041273      0             -1.6878324      5.5974866    
      3760   2.0249247     -4.7234553      0             -1.6874508      5.5320884    
      3770   2.0266795     -4.7263283      0             -1.6876927      5.4968572    
      3780   2.0115109     -4.7030263      0             -1.6871333      5.5058708    
      3790   2.0557859     -4.7700513      0             -1.6877761      5.2517484    
      3800   2.0193269     -4.7153004      0             -1.6876888      5.4534981    
      3810   2.0478235     -4.7583328      0             -1.6879956      5.3023722    
      3820   2.0477801     -4.7582381      0             -1.6879661      5.3164708    
      3830   2.0227223     -4.7209292      0             -1.6882268      5.4437529    
      3840   2.0306244     -4.7322652      0             -1.6877151      5.4054316    
      3850   2.0274143     -4.7277826      0             -1.6880454      5.4434764    
      3860   2.0381043     -4.7432553      0             -1.6874905      5.4148558    
      3870   2.039588      -4.7452093      0             -1.6872199      5.3913118    
      3880   2.0358845     -4.7394342      0             -1.6869975      5.4011234    
      3890   2.0570211     -4.7727314      0             -1.6886042      5.3011979    
      3900   2.0563505     -4.7707763      0             -1.6876545      5.3110975    
      3910   2.0634957     -4.7816014      0             -1.6877667      5.26621      
      3920   2.0370971     -4.7422003      0             -1.6879455      5.4100924    
      3930   2.0451887     -4.7536142      0             -1.6872275      5.3500173    
      3940   2.0220724     -4.7194573      0             -1.6877293      5.4542629    
      3950   2.0089143     -4.6998298      0             -1.68783        5.5079293    
      3960   2.0258343     -4.7256838      0             -1.6883155      5.4328331    
      3970   2.0408296     -4.7482908      0             -1.6884398      5.4014066    
      3980   2.0434439     -4.7514567      0             -1.687686       5.3828442    
      3990   2.0403021     -4.7463692      0             -1.6873091      5.3762784    
      4000   1.9922262     -4.6742239      0             -1.6872448      5.6429522    
      4010   2.017821      -4.7125903      0             -1.6872365      5.4959161    
      4020   2.0268578     -4.725606       0             -1.6867032      5.4284014    
      4030   2.0174931     -4.711669       0             -1.6868068      5.4790066    
      4040   2.0669403     -4.7864547      0             -1.6874555      5.2013897    
      4050   2.0099241     -4.7012567      0             -1.6877428      5.5126743    
      4060   2.0236577     -4.7224158      0             -1.6883109      5.4483594    
      4070   2.0613296     -4.7796725      0             -1.6890855      5.2702455    
      4080   2.0433911     -4.7519334      0             -1.6882418      5.4038899    
      4090   1.996063      -4.6799545      0             -1.6872228      5.6279084    
      4100   1.986818      -4.6671075      0             -1.6882369      5.6443752    
      4110   2.0157567     -4.7096298      0             -1.687371       5.452778     
      4120   2.005053      -4.6944585      0             -1.6882481      5.4969345    
      4130   2.0583006     -4.7738459      0             -1.6878003      5.2257338    
      4140   2.0354278     -4.7383171      0             -1.6865651      5.354156     
      4150   2.034786      -4.7366965      0             -1.6859067      5.3865673    
      4160   2.0076941     -4.6966057      0             -1.6864353      5.5495011    
      4170   1.9998394     -4.6861203      0             -1.6877266      5.5653615    
      4180   2.0218469     -4.7185234      0             -1.6871334      5.4459457    
      4190   1.9934013     -4.6762527      0             -1.6875118      5.5981186    
      4200   2.0463269     -4.7558461      0             -1.6877528      5.2700752    
      4210   2.0466769     -4.7557605      0             -1.6871425      5.2631535    
      4220   2.0326704     -4.7348556      0             -1.6872378      5.383232     
      4230   2.0145514     -4.7074374      0             -1.6869858      5.5081953    
      4240   2.0590466     -4.7746068      0             -1.6874428      5.2789361    
      4250   2.0542741     -4.7672448      0             -1.6872363      5.3319159    
      4260   2.0162573     -4.7103459      0             -1.6873365      5.5290082    
      4270   2.0301807     -4.7314439      0             -1.6875589      5.4558672    
      4280   2.0352617     -4.7380915      0             -1.6865885      5.4306917    
      4290   2.0050361     -4.6925586      0             -1.6863735      5.5605269    
      4300   2.0446953     -4.7520474      0             -1.6864004      5.3706668    
      4310   2.0233537     -4.7209143      0             -1.6872652      5.4791178    
      4320   2.0305958     -4.7312562      0             -1.6867489      5.4569866    
      4330   1.9992458     -4.6850344      0             -1.6875307      5.6191859    
      4340   2.034769      -4.7385964      0             -1.6878321      5.445621     
      4350   2.0170799     -4.7115578      0             -1.6873151      5.5102011    
      4360   1.9981362     -4.683558       0             -1.687718       5.5952918    
      4370   2.0130184     -4.7055657      0             -1.6874124      5.5322802    
      4380   2.0299275     -4.7308785      0             -1.6873732      5.431419     
      4390   2.0073318     -4.697637       0             -1.6880098      5.571221     
      4400   2.0418541     -4.7501406      0             -1.6887536      5.4195947    
      4410   2.0103595     -4.7027869      0             -1.6886203      5.5869539    
      4420   2.0222709     -4.7196278      0             -1.6876021      5.5106836    
      4430   2.0014934     -4.6884616      0             -1.687588       5.591662     
      4440   1.9794272     -4.6555582      0             -1.6877689      5.691361     
      4450   2.0676244     -4.7877615      0             -1.6877365      5.2185797    
      4460   2.0315651     -4.7331356      0             -1.687175       5.415071     
      4470   2.0349264     -4.7381156      0             -1.6871154      5.4162182    
      4480   2.0339674     -4.7372483      0             -1.6876859      5.4409808    
      4490   2.0181643     -4.7128288      0             -1.6869603      5.5240631    
      4500   2.0086455     -4.6986971      0             -1.6871003      5.5583727    
      4510   2.0349884     -4.7382671      0             -1.6871738      5.4428501    
      4520   2.0669388     -4.7856971      0             -1.6867002      5.2785422    
      4530   2.0290218     -4.7289308      0             -1.6867834      5.505028     
      4540   2.0441295     -4.7513136      0             -1.6865149      5.4348515    
      4550   2.0002744     -4.6855931      0             -1.6865471      5.6490995    
      4560   2.0267086     -4.7263007      0             -1.6876216      5.5055287    
      4570   2.0241027     -4.7226881      0             -1.6879161      5.5008328    
      4580   2.0100175     -4.700692       0             -1.6870381      5.5837346    
      4590   2.0559584     -4.7699498      0             -1.6874159      5.3149132    
      4600   2.037813      -4.7418081      0             -1.6864798      5.4276474    
      4610   2.0090189     -4.6997248      0             -1.687568       5.5918121    
      4620   2.0292193     -4.72931        0             -1.6868665      5.4461855    
      4630   2.0076614     -4.6977496      0             -1.6876283      5.5453788    
      4640   2.039428      -4.7457502      0             -1.6880007      5.4021004    
      4650   1.9906893     -4.6724767      0             -1.687802       5.6499321    
      4660   2.0226807     -4.7202823      0             -1.6876422      5.4948372    
      4670   2.043711      -4.7521002      0             -1.6879291      5.3635881    
      4680   2.031837      -4.7343946      0             -1.6880264      5.4560857    
      4690   2.0155304     -4.7099381      0             -1.6880186      5.5200728    
      4700   2.0596073     -4.7754513      0             -1.6874465      5.2690304    
      4710   2.0277795     -4.7278217      0             -1.687537       5.4717237    
      4720   2.0079573     -4.6983123      0             -1.6877473      5.568089     
      4730   2.0139062     -4.7076013      0             -1.688117       5.5084984    
      4740   2.0367613     -4.7416254      0             -1.6878741      5.3783332    
      4750   2.0606302     -4.7775265      0             -1.6879881      5.2629965    
      4760   2.0550172     -4.7691791      0             -1.6880564      5.2889568    
      4770   2.0347567     -4.739181       0             -1.6884351      5.3942895    
      4780   2.0637581     -4.7825707      0             -1.6883426      5.232036     
      4790   2.0467827     -4.7570679      0             -1.6882913      5.338232     
      4800   2.0330111     -4.736199       0             -1.6880705      5.4030178    
      4810   2.0445476     -4.7530181      0             -1.6875926      5.3661897    
      4820   2.0301952     -4.7310829      0             -1.6871762      5.4611838    
      4830   2.0352957     -4.7394231      0             -1.6878692      5.4141944    
      4840   2.0267017     -4.7259733      0             -1.6873044      5.4546385    
      4850   2.0292554     -4.7294658      0             -1.6869682      5.4475774    
      4860   2.0506898     -4.7612813      0             -1.6866468      5.353904     
      4870   2.0439573     -4.7516028      0             -1.6870623      5.3897696    
      4880   2.0274749     -4.7276437      0             -1.6878155      5.4112145    
      4890   2.0033958     -4.6916839      0             -1.687958       5.5407934    
      4900   2.0294463     -4.7308344      0             -1.6880505      5.4000584    
      4910   2.0347305     -4.7386998      0             -1.6879933      5.3768497    
      4920   2.012095      -4.7038181      0             -1.6870494      5.5095972    
      4930   1.9964323     -4.6811575      0             -1.6878721      5.5873839    
      4940   2.0130254     -4.7061916      0             -1.6880279      5.5092179    
      4950   2.0593624     -4.7752624      0             -1.6876249      5.2440606    
      4960   2.0228539     -4.7201806      0             -1.6872808      5.4093316    
      4970   2.0199377     -4.7166953      0             -1.6881679      5.4639853    
      4980   2.050107      -4.7616999      0             -1.6879391      5.3367858    
      4990   2.0301226     -4.7305723      0             -1.6867744      5.4724032    
      5000   2.0170183     -4.7107387      0             -1.6865884      5.5431577    
      5010   2.0213729     -4.7170059      0             -1.6863267      5.5410151    
      5020   2.0383092     -4.7432209      0             -1.6871488      5.4627543    
      5030   2.0476639     -4.7578597      0             -1.6877618      5.4052756    
      5040   2.0107792     -4.7016629      0             -1.686867       5.5687435    
      5050   2.0282894     -4.7283984      0             -1.687349       5.4176603    
      5060   2.0198397     -4.7151443      0             -1.6867638      5.4755764    
      5070   2.007226      -4.6969679      0             -1.6874994      5.5693263    
      5080   2.0298341     -4.7316823      0             -1.6883171      5.4630234    
      5090   2.0353973     -4.7391418      0             -1.6874355      5.4379945    
      5100   2.0528258     -4.7654415      0             -1.6876044      5.3060948    
      5110   2.0352645     -4.7386323      0             -1.6871252      5.4172932    
      5120   2.0202977     -4.7168386      0             -1.6877714      5.515953     
      5130   1.9712878     -4.6431274      0             -1.6875416      5.7933896    
      5140   2.0391901     -4.7453209      0             -1.687928       5.4382324    
      5150   2.0206329     -4.7173576      0             -1.6877879      5.5348228    
      5160   2.0269079     -4.7257859      0             -1.6868079      5.4856958    
      5170   2.0581652     -4.7731203      0             -1.6872778      5.2638045    
      5180   2.0607986     -4.7775105      0             -1.6877196      5.2405195    
      5190   2.0398126     -4.746233       0             -1.6879068      5.3588504    
      5200   2.0143271     -4.7073768      0             -1.6872613      5.5173672    
      5210   2.0477575     -4.7576911      0             -1.6874529      5.3478384    
      5220   2.0444923     -4.7528951      0             -1.6875525      5.3827991    
      5230   2.0382055     -4.7431583      0             -1.6872417      5.4417909    
      5240   2.0331316     -4.7361962      0             -1.6878869      5.4819683    
      5250   2.0190021     -4.7151315      0             -1.6880068      5.5327454    
      5260   2.0516446     -4.7636368      0             -1.6875706      5.3510302    
      5270   2.0589485     -4.7749943      0             -1.6879772      5.3087334    
      5280   1.9963569     -4.680846       0             -1.6876737      5.6488107    
      5290   1.9846509     -4.6630789      0             -1.6874577      5.7173103    
      5300   2.0107986     -4.7023763      0             -1.6875513      5.5708149    
      5310   2.0438372     -4.7528934      0             -1.688533       5.3726925    
      5320   2.0172979     -4.7129833      0             -1.6884137      5.510754     
      5330   2.041425      -4.7494629      0             -1.6887191      5.3959434    
      5340   2.0161043     -4.7111411      0             -1.6883611      5.530712     
      5350   2.0651529     -4.7849289      0             -1.6886095      5.2557099    
      5360   2.0691073     -4.7902265      0             -1.6879782      5.2332952    
      5370   2.0503244     -4.7627191      0             -1.6886324      5.3378966    
      5380   2.0445141     -4.7535418      0             -1.6881665      5.3780498    
      5390   2.04832       -4.7589307      0             -1.6878491      5.3527607    
      5400   2.0242935     -4.7231874      0             -1.6881293      5.4864268    
      5410   2.0135809     -4.7073539      0             -1.6883573      5.5422728    
      5420   2.0503174     -4.7624992      0             -1.688423       5.3165847    
      5430   2.0477483     -4.7583245      0             -1.6881002      5.3105808    
      5440   2.0291515     -4.7300573      0             -1.6877155      5.4467411    
      5450   2.0178322     -4.7134499      0             -1.6880793      5.5369247    
      5460   2.0542097     -4.7676053      0             -1.6876933      5.3557787    
      5470   2.0183644     -4.7136762      0             -1.6875077      5.5033352    
      5480   2.0410708     -4.7473786      0             -1.687166       5.3982314    
      5490   2.0246423     -4.7240687      0             -1.6884876      5.4873511    
      5500   2.0413798     -4.7486754      0             -1.6879995      5.413133     
      5510   2.0323962     -4.7352206      0             -1.6880139      5.4610624    
      5520   2.0226113     -4.7209854      0             -1.6884494      5.4828801    
      5530   2.0506954     -4.7627545      0             -1.6881114      5.3052131    
      5540   2.0097406     -4.7012811      0             -1.6880423      5.5245157    
      5550   2.0274776     -4.7267328      0             -1.6869006      5.4595727    
      5560   2.0063828     -4.6958875      0             -1.6876832      5.592263     
      5570   2.0081954     -4.6978664      0             -1.6869443      5.606812     
      5580   2.0433561     -4.7513318      0             -1.6876927      5.3964452    
      5590   2.0285404     -4.7288113      0             -1.6873856      5.4344299    
      5600   2.0564716     -4.7715444      0             -1.6882411      5.3218661    
      5610   2.0315269     -4.7338044      0             -1.687901       5.4245437    
      5620   2.0417041     -4.7488705      0             -1.6877082      5.3341465    
      5630   2.026896      -4.7269263      0             -1.6879662      5.4258418    
      5640   1.9937466     -4.6767437      0             -1.687485       5.6626397    
      5650   1.9935585     -4.6763912      0             -1.6874145      5.6475309    
      5660   2.047121      -4.757313       0             -1.6880291      5.2960722    
      5670   2.0397854     -4.7463442      0             -1.6880587      5.3015045    
      5680   2.0668237     -4.787409       0             -1.6885846      5.2222301    
      5690   1.9999208     -4.6860574      0             -1.6875416      5.6541016    
      5700   2.024265      -4.722668       0             -1.6876525      5.5132882    
      5710   2.0339635     -4.7369022      0             -1.6873456      5.4325488    
      5720   2.0582401     -4.7736748      0             -1.6877199      5.2852183    
      5730   2.0379165     -4.7436007      0             -1.6881173      5.3905004    
      5740   2.037771      -4.7429518      0             -1.6876865      5.3866862    
      5750   2.0418505     -4.7497318      0             -1.6883501      5.3885001    
      5760   2.0743146     -4.7987481      0             -1.6886925      5.2178867    
      5770   2.0396208     -4.7455502      0             -1.6875115      5.4233741    
      5780   2.0487151     -4.7595526      0             -1.6878787      5.3782436    
      5790   2.0189488     -4.7147515      0             -1.6877067      5.5455171    
      5800   2.0666226     -4.7858765      0             -1.6873536      5.252307     
      5810   2.0498435     -4.7602148      0             -1.6868491      5.3097983    
      5820   2.0245934     -4.7233527      0             -1.6878448      5.4589485    
      5830   2.0325209     -4.7348817      0             -1.687488       5.4408688    
      5840   2.0317398     -4.73375        0             -1.6875274      5.4542021    
      5850   2.0516991     -4.7642309      0             -1.688083       5.331615     
      5860   2.0162064     -4.7105474      0             -1.6876143      5.5198537    
      5870   2.0368878     -4.7421722      0             -1.6882312      5.4083675    
      5880   2.0418543     -4.7491354      0             -1.687748       5.3307455    
      5890   2.0432952     -4.7515181      0             -1.6879705      5.2957975    
      5900   2.0216284     -4.7196212      0             -1.6885588      5.4197945    
      5910   2.0371319     -4.741488       0             -1.6871811      5.3929901    
      5920   2.0105455     -4.7020122      0             -1.6875666      5.5713493    
      5930   2.0190698     -4.7148616      0             -1.6876354      5.5363238    
      5940   2.0399805     -4.746635       0             -1.6880571      5.390989     
      5950   2.0238733     -4.722128       0             -1.6876999      5.397419     
      5960   2.0569253     -4.7717894      0             -1.6878058      5.2479006    
      5970   2.0365661     -4.7410906      0             -1.687632       5.3481003    
      5980   2.0394641     -4.7455043      0             -1.6877006      5.3589832    
      5990   2.0335433     -4.7365437      0             -1.6876172      5.4339338    
      6000   2.0057869     -4.6946758      0             -1.6873648      5.5830682    
      6010   2.0138671     -4.7070534      0             -1.6876276      5.5564145    
      6020   1.9985151     -4.6841429      0             -1.6877348      5.62019      
      6030   2.0083689     -4.6988387      0             -1.6876566      5.5458254    
      6040   2.0330723     -4.7347829      0             -1.6865625      5.4028356    
      6050   2.0310194     -4.7322056      0             -1.6870631      5.4218701    
      6060   2.0317535     -4.7335776      0             -1.6873345      5.4426724    
      6070   1.992747      -4.674564       0             -1.686804       5.6601633    
      6080   2.0244578     -4.7212577      0             -1.6859532      5.4833904    
      6090   2.0201493     -4.7161246      0             -1.6872799      5.5394468    
      6100   2.0030383     -4.6908377      0             -1.6876479      5.6040448    
      6110   2.0345624     -4.7387013      0             -1.6882469      5.3974309    
      6120   2.0110979     -4.7030776      0             -1.6878037      5.5031843    
      6130   2.0408016     -4.7485152      0             -1.6887061      5.3503997    
      6140   2.0247069     -4.7242381      0             -1.6885601      5.4021196    
      6150   2.0357085     -4.7402316      0             -1.6880588      5.3398769    
      6160   2.0270711     -4.7273528      0             -1.6881301      5.392694     
      6170   2.0434117     -4.7513025      0             -1.6875802      5.3510605    
      6180   2.0144242     -4.7069103      0             -1.6866493      5.5362922    
      6190   2.0320271     -4.7335157      0             -1.6868624      5.4593097    
      6200   2.0179105     -4.7128761      0             -1.687388       5.5167409    
      6210   2.0477042     -4.7578427      0             -1.6876845      5.3543342    
      6220   2.0560224     -4.7697083      0             -1.6870785      5.2868963    
      6230   2.0181886     -4.7131103      0             -1.6872053      5.4901244    
      6240   2.0369396     -4.7417803      0             -1.6877617      5.3812003    
      6250   2.0359928     -4.7398647      0             -1.6872656      5.4008677    
      6260   2.0429        -4.7502554      0             -1.6873001      5.4090485    
      6270   2.0020892     -4.6894148      0             -1.6876479      5.6335558    
      6280   2.0551325     -4.7690535      0             -1.687758       5.3341875    
      6290   2.0186027     -4.7152662      0             -1.6887404      5.4912722    
      6300   2.0694578     -4.7913896      0             -1.6886159      5.1880872    
      6310   2.0185209     -4.7142486      0             -1.6878453      5.4471347    
      6320   2.0510636     -4.7635987      0             -1.6884036      5.2743327    
      6330   2.0362511     -4.7407813      0             -1.6877949      5.3566441    
      6340   2.0476294     -4.7583181      0             -1.6882719      5.3396943    
      6350   2.0409655     -4.7475303      0             -1.6874756      5.3810243    
      6360   2.0182361     -4.7129318      0             -1.6869555      5.5442282    
      6370   1.9983785     -4.6837506      0             -1.6875472      5.6418285    
      6380   2.0011936     -4.6881008      0             -1.6876766      5.6357833    
      6390   2.0644467     -4.7841404      0             -1.6888799      5.2897648    
      6400   2.0639905     -4.7827786      0             -1.6882021      5.3051536    
      6410   2.0395451     -4.746274       0             -1.6883489      5.4169273    
      6420   2.0612537     -4.7774677      0             -1.6869944      5.2753186    
      6430   2.0260475     -4.7259191      0             -1.6882312      5.4192255    
      6440   2.057597      -4.7728853      0             -1.6878946      5.1920814    
      6450   2.0327206     -4.7356705      0             -1.6879775      5.3325642    
      6460   2.0221193     -4.7197391      0             -1.6879408      5.4527058    
      6470   2.0149484     -4.708234       0             -1.687187       5.5041291    
      6480   2.0231823     -4.720676       0             -1.6872839      5.4638052    
      6490   2.0508621     -4.7620182      0             -1.6871253      5.325285     
      6500   2.0260303     -4.7258319      0             -1.6881698      5.4560878    
      6510   2.043229      -4.7519574      0             -1.6885089      5.3570246    
      6520   2.0510388     -4.763244       0             -1.6880861      5.2888667    
      6530   2.0278421     -4.7283863      0             -1.6880077      5.4388445    
      6540   2.04062       -4.7479158      0             -1.688379       5.3524266    
      6550   2.0375283     -4.7423865      0             -1.6874851      5.3841893    
      6560   2.016249      -4.7107019      0             -1.687705       5.5374067    
      6570   2.0412495     -4.7472924      0             -1.6868118      5.4125662    
      6580   2.023434      -4.7215551      0             -1.6877856      5.5041203    
      6590   2.0526641     -4.7652529      0             -1.6876582      5.3595875    
      6600   2.0420937     -4.7497665      0             -1.6880202      5.4316872    
      6610   2.0211642     -4.7171783      0             -1.6868119      5.5151875    
      6620   2.0474594     -4.7572681      0             -1.687477       5.3568385    
      6630   2.0167551     -4.7114448      0             -1.6876891      5.5359613    
      6640   2.0101717     -4.7012117      0             -1.6873265      5.5889649    
      6650   2.0011953     -4.6875344      0             -1.6871078      5.6324487    
      6660   2.0610423     -4.77726        0             -1.6871037      5.2645708    
      6670   2.0376127     -4.7425017      0             -1.6874738      5.3865781    
      6680   2.0747315     -4.7986903      0             -1.6880096      5.2274121    
      6690   2.0368256     -4.741129       0             -1.6872812      5.3972025    
      6700   2.0306226     -4.7325569      0             -1.6880095      5.4351968    
      6710   2.034387      -4.738232       0             -1.6880405      5.4441843    
      6720   2.0211269     -4.71783        0             -1.6875195      5.4887089    
      6730   2.0374618     -4.741417       0             -1.6866154      5.4014422    
      6740   2.0427398     -4.7495581      0             -1.686843       5.3826648    
      6750   2.0051838     -4.693084       0             -1.6866773      5.5292399    
      6760   2.0522557     -4.7643656      0             -1.6873832      5.2595806    
      6770   2.0243109     -4.7228327      0             -1.6877484      5.3967022    
      6780   2.0594688     -4.7758479      0             -1.6880509      5.212145     
      6790   2.0396696     -4.7463759      0             -1.688264       5.3436944    
      6800   2.0124803     -4.7047727      0             -1.6874262      5.552961     
      6810   2.0399637     -4.7462614      0             -1.6877086      5.4404742    
      6820   2.0221165     -4.7194243      0             -1.68763        5.5477514    
      6830   2.0294011     -4.7308472      0             -1.6881312      5.5236376    
      6840   2.0369382     -4.7423113      0             -1.6882947      5.4524801    
      6850   2.040438      -4.7477901      0             -1.6885261      5.4041746    
      6860   2.0541486     -4.7680658      0             -1.6882454      5.3106963    
      6870   2.0198351     -4.7168177      0             -1.6884442      5.4645969    
      6880   2.0350434     -4.7386985      0             -1.6875229      5.4078838    
      6890   2.0023704     -4.690525       0             -1.6883366      5.6092302    
      6900   2.0222304     -4.719328       0             -1.6873631      5.4799889    
      6910   2.063697      -4.7808642      0             -1.6867276      5.2968758    
      6920   1.9783413     -4.6531184      0             -1.6869573      5.7844708    
      6930   2.0034182     -4.6911006      0             -1.6873412      5.6491798    
      6940   2.0140209     -4.7070442      0             -1.6873879      5.5817245    
      6950   2.0393406     -4.7457416      0             -1.688123       5.3861293    
      6960   2.0288588     -4.7302144      0             -1.6883113      5.3931972    
      6970   2.0322682     -4.7356129      0             -1.6885981      5.3885428    
      6980   2.0210892     -4.7181066      0             -1.6878527      5.4428932    
      6990   2.0690756     -4.7906708      0             -1.6884702      5.231994     
      7000   2.0309498     -4.7327233      0             -1.6876853      5.4481001    
      7010   2.0167209     -4.7113255      0             -1.687621       5.5342136    
      7020   2.0336641     -4.7365898      0             -1.687482       5.460331     
      7030   2.0174973     -4.7128594      0             -1.687991       5.5124339    
      7040   2.0118449     -4.704254       0             -1.6878603      5.5243334    
      7050   2.0497236     -4.7610828      0             -1.6878968      5.3247416    
      7060   2.0457833     -4.7550328      0             -1.6877545      5.3554946    
      7070   2.0546562     -4.76835        0             -1.6877685      5.2915571    
      7080   2.0301033     -4.7318079      0             -1.688039       5.4315606    
      7090   2.0494403     -4.7607623      0             -1.6880011      5.3362212    
      7100   2.0400795     -4.7462643      0             -1.687538       5.3958813    
      7110   2.0352219     -4.7392118      0             -1.6877685      5.378787     
      7120   2.0586547     -4.7747178      0             -1.6881413      5.2393695    
      7130   2.0494623     -4.7610381      0             -1.6882439      5.3201143    
      7140   2.0127612     -4.7056038      0             -1.6878361      5.5196307    
      7150   2.0515977     -4.7640695      0             -1.6880737      5.3046411    
      7160   2.0275083     -4.7280537      0             -1.6881756      5.4165772    
      7170   2.0774308     -4.8038688      0             -1.689141       5.1368145    
      7180   2.0230714     -4.7212257      0             -1.6879998      5.4275234    
      7190   2.0065763     -4.6966464      0             -1.6881519      5.5137179    
      7200   2.066044      -4.7863182      0             -1.6886629      5.2098459    
      7210   2.0214311     -4.7199789      0             -1.6892123      5.4534434    
      7220   2.0130195     -4.7070233      0             -1.6888684      5.5087849    
      7230   2.0284732     -4.7297899      0             -1.6884651      5.4190911    
      7240   2.0323609     -4.7351438      0             -1.68799        5.4186743    
      7250   1.9998779     -4.6861973      0             -1.6877459      5.6494962    
      7260   2.0222758     -4.7205601      0             -1.6885271      5.571785     
      7270   2.032732      -4.7355845      0             -1.6878742      5.4671274    
      7280   2.0449972     -4.7539301      0             -1.6878306      5.3882584    
      7290   2.0210043     -4.7168542      0             -1.6867276      5.5860111    
      7300   2.0431958     -4.7508623      0             -1.6874636      5.4651582    
      7310   2.0491365     -4.7595353      0             -1.6872296      5.3985556    
      7320   1.9931729     -4.6754346      0             -1.6870361      5.6914067    
      7330   2.0111665     -4.703312       0             -1.6879353      5.5473254    
      7340   2.0491053     -4.7601404      0             -1.6878815      5.2995318    
      7350   2.0584306     -4.7742732      0             -1.6880327      5.2607315    
      7360   2.0704936     -4.792454       0             -1.6881272      5.1885977    
      7370   2.0270753     -4.7273964      0             -1.6881674      5.432575     
      7380   2.0113186     -4.7031021      0             -1.6874975      5.4964269    
      7390   2.031049      -4.7329335      0             -1.6877467      5.3559614    
      7400   2.0584332     -4.7735664      0             -1.6873219      5.2417693    
      7410   2.0091893     -4.6995604      0             -1.6871482      5.5454964    
      7420   2.0322271     -4.7341824      0             -1.6872293      5.505749     
      7430   2.0277521     -4.7263772      0             -1.6861335      5.5043147    
      7440   2.0175654     -4.7122174      0             -1.6872468      5.5317637    
      7450   2.0393055     -4.7449112      0             -1.6873454      5.3882624    
      7460   2.0704392     -4.790763       0             -1.6865177      5.2127812    
      7470   2.0457904     -4.7545519      0             -1.6872631      5.374581     
      7480   2.0535208     -4.766531       0             -1.6876518      5.3158432    
      7490   2.0574692     -4.773024       0             -1.688225       5.2646171    
      7500   2.044724      -4.7546893      0             -1.6889993      5.3240597    
      7510   2.029298      -4.7306256      0             -1.6880642      5.3961734    
      7520   2.0333287     -4.7364841      0             -1.6878794      5.3950392    
      7530   2.0409587     -4.7475192      0             -1.6874746      5.3713977    
      7540   2.0243098     -4.7227374      0             -1.6876548      5.4834329    
      7550   2.005343      -4.6946034      0             -1.6879581      5.5898381    
      7560   1.99537       -4.6799685      0             -1.6882759      5.6333664    
      7570   2.0054106     -4.6949352      0             -1.6881885      5.5912412    
      7580   2.0393576     -4.7457817      0             -1.6881377      5.4013991    
      7590   2.0356515     -4.7401978      0             -1.6881103      5.4436868    
      7600   2.0208892     -4.7182948      0             -1.6883408      5.5099212    
      7610   2.0364735     -4.741427       0             -1.6881071      5.4077646    
      7620   2.0583308     -4.7746283      0             -1.6885373      5.283813     
      7630   2.0249882     -4.7241097      0             -1.68801        5.4666121    
      7640   2.02982       -4.7312109      0             -1.6878668      5.4591346    
      7650   2.0226691     -4.7208083      0             -1.6881856      5.453188     
      7660   2.0370993     -4.7430368      0             -1.6887787      5.3281755    
      7670   2.0325297     -4.7358587      0             -1.6884519      5.3177261    
      7680   2.0315889     -4.7344674      0             -1.6884711      5.3310359    
      7690   2.0508169     -4.7635813      0             -1.6887561      5.254967     
      7700   2.0137524     -4.7075021      0             -1.6882484      5.4878803    
      7710   2.0487091     -4.7589929      0             -1.687328       5.3425436    
      7720   2.021297      -4.7181602      0             -1.6875948      5.5295694    
      7730   2.0346339     -4.7378146      0             -1.6872528      5.4680054    
      7740   2.0396253     -4.7453499      0             -1.6873044      5.4382178    
      7750   2.0413538     -4.7484916      0             -1.6878546      5.3971512    
      7760   2.0190176     -4.7153962      0             -1.6882482      5.4940263    
      7770   2.0215994     -4.7195154      0             -1.6884966      5.490316     
      7780   2.0177237     -4.7136573      0             -1.6884493      5.4889377    
      7790   2.058836      -4.7751957      0             -1.6883475      5.2356593    
      7800   2.0268114     -4.7262557      0             -1.6874224      5.3847498    
      7810   2.0024011     -4.6891876      0             -1.6869531      5.5601325    
      7820   1.9979029     -4.6832356      0             -1.6877453      5.6078011    
      7830   2.0267596     -4.7262481      0             -1.6874925      5.4733876    
      7840   2.0341585     -4.7369441      0             -1.6870952      5.4327149    
      7850   2.0498339     -4.7613897      0             -1.6880384      5.3325782    
      7860   2.0234859     -4.7210754      0             -1.6872282      5.4790562    
      7870   2.042307      -4.7495454      0             -1.6874793      5.3857476    
      7880   2.0391263     -4.7456953      0             -1.688398       5.40778      
      7890   2.0226108     -4.7194233      0             -1.686888       5.5057894    
      7900   2.0284553     -4.7277855      0             -1.6864875      5.4056643    
      7910   2.0275312     -4.7273672      0             -1.6874547      5.4279669    
      7920   2.0194952     -4.7147809      0             -1.686917       5.5204042    
[...]
      9850   2.0489122     -4.7600503      0             -1.6880809      5.3024512    
      9860   2.0920738     -4.8248867      0             -1.6882043      5.0645007    
      9870   1.9993295     -4.6849521      0             -1.6873228      5.607534     
      9880   2.0382752     -4.7437392      0             -1.6877181      5.3879476    
      9890   2.0498213     -4.7612608      0             -1.6879284      5.3029043    
      9900   2.0612106     -4.7781621      0             -1.6877535      5.2758088    
      9910   2.0355658     -4.7387637      0             -1.6868048      5.4276783    
      9920   2.0245467     -4.7223245      0             -1.6868867      5.465241     
      9930   2.0306574     -4.732357       0             -1.6877574      5.3952995    
      9940   2.0722873     -4.7951517      0             -1.6881357      5.181384     
      9950   2.0381887     -4.7439224      0             -1.688031       5.3993804    
      9960   2.0430736     -4.7514875      0             -1.6882721      5.3791529    
      9970   2.0584742     -4.7750987      0             -1.6887928      5.323811     
      9980   2.0378404     -4.7429009      0             -1.6875315      5.4381306    
      9990   2.0019539     -4.6890934      0             -1.6875294      5.6141549    
     10000   2.0570139     -4.7718645      0             -1.687748       5.3358193    
     10010   2.0429687     -4.7504426      0             -1.6873844      5.3897998    
     10020   2.0304116     -4.7319356      0             -1.6877045      5.4339905    
     10030   2.0368361     -4.7418037      0             -1.6879402      5.3943714    
     10040   2.0252963     -4.7241847      0             -1.687623       5.4323675    
     10050   2.0088381     -4.6992804      0             -1.6873947      5.5539209    
     10060   2.0024069     -4.689733       0             -1.6874898      5.5925771    
     10070   2.0374693     -4.7429819      0             -1.6881691      5.3824097    
     10080   2.0034121     -4.6912719      0             -1.6875216      5.5741019    
     10090   2.0085438     -4.698631       0             -1.6871866      5.5659609    
     10100   2.0340195     -4.7371742      0             -1.6875336      5.3890048    
     10110   2.0174155     -4.7124051      0             -1.6876593      5.4832597    
     10120   2.0575375     -4.7725062      0             -1.6876046      5.2665537    
     10130   2.0251253     -4.723366       0             -1.6870608      5.4289255    
     10140   2.0134983     -4.7059306      0             -1.6870579      5.5023086    
     10150   2.0406065     -4.7471587      0             -1.6876422      5.3561177    
     10160   2.0252712     -4.7237915      0             -1.6872675      5.3976905    
     10170   2.0451539     -4.7544353      0             -1.6881008      5.3207649    
     10180   2.0076319     -4.6973766      0             -1.6872995      5.5211493    
     10190   2.0454528     -4.7543965      0             -1.6876138      5.350195     
     10200   2.0162138     -4.7109489      0             -1.6880048      5.5102555    
     10210   2.0186672     -4.7139636      0             -1.687341       5.4795342    
     10220   2.0277747     -4.7272019      0             -1.6869244      5.444418     
     10230   2.0080685     -4.6979164      0             -1.6871847      5.5617465    
     10240   1.9907006     -4.6718875      0             -1.6871958      5.6433162    
     10250   2.0158906     -4.7105245      0             -1.688065       5.5376981    
     10260   2.0204457     -4.7169161      0             -1.687627       5.4933563    
     10270   2.032972      -4.7350963      0             -1.6870263      5.4060676    
     10280   2.071798      -4.7936913      0             -1.6874089      5.2146002    
     10290   2.059589      -4.7754602      0             -1.687483       5.2638091    
     10300   2.0278092     -4.7278479      0             -1.6875187      5.4372496    
     10310   1.9955053     -4.6794929      0             -1.6875974      5.6015618    
     10320   2.0249453     -4.7227872      0             -1.6867517      5.4426762    
     10330   2.0376281     -4.7424835      0             -1.6874325      5.3741934    
     10340   2.0061696     -4.6953518      0             -1.6874671      5.5368638    
     10350   2.0877122     -4.8188509      0             -1.688708       5.1086505    
     10360   2.0042282     -4.6927237      0             -1.6877498      5.5525439    
     10370   2.0386662     -4.744674       0             -1.6880666      5.381649     
     10380   2.0494364     -4.7599063      0             -1.6871511      5.3590429    
     10390   2.0374033     -4.742843       0             -1.6881291      5.4250116    
     10400   2.0433182     -4.7516585      0             -1.6880763      5.3932508    
     10410   2.0379794     -4.7436846      0             -1.688107       5.3982224    
     10420   2.0397504     -4.7455598      0             -1.6873269      5.3463808    
     10430   2.0385204     -4.7446169      0             -1.6882281      5.3635489    
     10440   2.03022       -4.7319124      0             -1.6879686      5.4136895    
     10450   2.0331908     -4.7363936      0             -1.6879956      5.3996367    
     10460   2.0410188     -4.748          0             -1.6878653      5.3554086    
     10470   2.0546374     -4.7685823      0             -1.6880289      5.2564639    
     10480   2.0348457     -4.7388957      0             -1.6880164      5.3532865    
     10490   2.039178      -4.7452761      0             -1.6879012      5.3416598    
     10500   2.0543487     -4.7672968      0             -1.6871764      5.2722572    
     10510   2.0162446     -4.71015        0             -1.6871598      5.457018     
     10520   2.0477095     -4.7576767      0             -1.6875106      5.3057567    
     10530   2.0048622     -4.6935699      0             -1.6876455      5.5417127    
     10540   2.0450275     -4.7540287      0             -1.6878837      5.3408097    
     10550   2.0355068     -4.7394913      0             -1.6876207      5.4212108    
     10560   2.018812      -4.714769       0             -1.6879293      5.5306366    
     10570   2.044197      -4.7535063      0             -1.6886064      5.3590055    
     10580   2.0471275     -4.7569479      0             -1.6876544      5.2639903    
     10590   2.0417695     -4.748872       0             -1.6876118      5.2958273    
     10600   2.0509099     -4.7635297      0             -1.688565       5.2978872    
     10610   2.0114355     -4.704875       0             -1.689095       5.5232794    
     10620   2.0362141     -4.7418242      0             -1.6888932      5.3566026    
     10630   2.05068       -4.7630289      0             -1.6884091      5.2716574    
     10640   2.0462222     -4.7567697      0             -1.6888335      5.307576     
     10650   2.0204877     -4.7182683      0             -1.6889162      5.4543559    
     10660   2.053198      -4.7668439      0             -1.6884487      5.2514616    
     10670   2.0523583     -4.766314       0             -1.6891778      5.2285216    
     10680   2.0688453     -4.7907039      0             -1.6888485      5.1532359    
     10690   2.0379209     -4.7437946      0             -1.6883047      5.3665383    
     10700   2.007848      -4.6983148      0             -1.6879136      5.5822921    
     10710   1.9992545     -4.6851206      0             -1.6876039      5.6259422    
     10720   2.0456131     -4.7544684      0             -1.6874453      5.3594552    
     10730   2.0220227     -4.719064       0             -1.6874106      5.4787571    
     10740   2.0244527     -4.7227463      0             -1.6874495      5.4727162    
     10750   2.0462228     -4.7558019      0             -1.6878647      5.3402069    
     10760   2.0518967     -4.7645402      0             -1.6880961      5.310322     
     10770   2.0736953     -4.7973416      0             -1.6882144      5.2190503    
     10780   2.0349865     -4.7395786      0             -1.6884883      5.4424915    
     10790   2.0455112     -4.7550465      0             -1.6881762      5.4149303    
     10800   2.0322732     -4.7347316      0             -1.6877093      5.4612343    
     10810   2.074384      -4.7978217      0             -1.6876621      5.2124258    
     10820   2.024895      -4.723857       0             -1.6878969      5.5091917    
     10830   2.0217975     -4.7195931      0             -1.6882772      5.5121901    
     10840   2.0572437     -4.7726546      0             -1.6881937      5.2981159    
     10850   2.0405638     -4.7469569      0             -1.6875044      5.3862191    
     10860   2.0342426     -4.7375895      0             -1.6876145      5.4019052    
     10870   2.0340255     -4.7368902      0             -1.6872406      5.4115714    
     10880   2.0283825     -4.7282806      0             -1.6870917      5.4638213    
     10890   2.0092018     -4.7000939      0             -1.687663       5.5883545    
     10900   2.0306389     -4.732018       0             -1.6874461      5.4177875    
     10910   2.0437015     -4.751623       0             -1.6874661      5.3209018    
     10920   1.9947331     -4.6773551      0             -1.6866173      5.5828242    
     10930   2.0537073     -4.7669466      0             -1.6877879      5.281122     
     10940   2.0305201     -4.731537       0             -1.6871432      5.4475298    
     10950   1.9803649     -4.6565107      0             -1.6873155      5.7386895    
     10960   2.0333611     -4.7354873      0             -1.6868339      5.4498901    
     10970   2.0248682     -4.7225374      0             -1.6866176      5.465205     
     10980   2.0431064     -4.7502049      0             -1.6869403      5.3679276    
     10990   2.0398081     -4.7449598      0             -1.6866402      5.3766637    
     11000   2.0579993     -4.7727353      0             -1.6871414      5.3114573    
     11010   2.0221605     -4.7185426      0             -1.6866825      5.50292      
     11020   2.033823      -4.7368692      0             -1.6875233      5.4310215    
     11030   2.0418143     -4.7489618      0             -1.6876344      5.3781586    
     11040   2.025292      -4.7241439      0             -1.6875886      5.4851841    
     11050   2.0355718     -4.7396301      0             -1.6876622      5.4409167    
     11060   1.9922759     -4.6749541      0             -1.6879005      5.689735     
     11070   2.0013937     -4.6886062      0             -1.6878821      5.6221213    
     11080   2.0542711     -4.7684147      0             -1.6884106      5.274475     
     11090   2.0131882     -4.7054213      0             -1.6870134      5.5020809    
     11100   2.0183942     -4.7131341      0             -1.6869209      5.484603     
     11110   2.0295641     -4.7304072      0             -1.6874467      5.3942112    
     11120   2.0275067     -4.7263308      0             -1.6864549      5.4251547    
     11130   2.0600388     -4.7759728      0             -1.6873211      5.2467686    
     11140   2.0472443     -4.7574547      0             -1.6879859      5.3115536    
     11150   2.0437493     -4.7523989      0             -1.6881703      5.3634943    
     11160   2.0194013     -4.7151919      0             -1.6874687      5.5011033    
     11170   1.9958124     -4.6791337      0             -1.6867778      5.600417     
     11180   2.0238979     -4.72154        0             -1.6870749      5.4459966    
     11190   2.0197289     -4.7152529      0             -1.6870385      5.4561538    
     11200   2.0144973     -4.7071143      0             -1.6867438      5.4609921    
     11210   2.0581904     -4.7732517      0             -1.6873714      5.2470985    
     11220   2.0126949     -4.7049885      0             -1.6873203      5.5195011    
     11230   2.0324957     -4.7354244      0             -1.6880684      5.4248931    
     11240   2.0352189     -4.7390786      0             -1.6876398      5.4057278    
     11250   2.0203198     -4.71651        0             -1.6874097      5.5010798    
     11260   2.0318764     -4.7339559      0             -1.6875286      5.4442664    
     11270   2.021337      -4.7180641      0             -1.6874388      5.5215476    
     11280   2.0311501     -4.7328229      0             -1.6874845      5.4809594    
     11290   2.0311252     -4.7325711      0             -1.68727        5.4569941    
     11300   2.0518334     -4.7638623      0             -1.687513       5.322674     
     11310   2.0060172     -4.6945229      0             -1.6868666      5.5720009    
     11320   2.0030428     -4.6904226      0             -1.6872261      5.66709      
     11330   1.9827363     -4.6600957      0             -1.6873449      5.8147185    
     11340   2.0199715     -4.7162469      0             -1.6876688      5.5711006    
     11350   2.0332051     -4.7358221      0             -1.6874027      5.4300747    
     11360   2.0555025     -4.7699755      0             -1.6881252      5.2531485    
     11370   2.0584908     -4.7749373      0             -1.6886065      5.2242163    
     11380   2.0523422     -4.765024       0             -1.687912       5.290982     
     11390   2.0258445     -4.7250968      0             -1.6877133      5.470853     
     11400   2.0398953     -4.7454193      0             -1.6869691      5.3963129    
     11410   2.0369504     -4.7408564      0             -1.6868215      5.4105683    
     11420   2.0609723     -4.7773033      0             -1.687252       5.3156503    
     11430   1.9865796     -4.6661666      0             -1.6876535      5.7315134    
     11440   2.0234247     -4.721538       0             -1.6877825      5.569575     
     11450   2.0237057     -4.7214579      0             -1.687281       5.501156     
     11460   2.0576383     -4.7728797      0             -1.6878271      5.2930549    
     11470   2.0062757     -4.6958597      0             -1.687816       5.5952876    
     11480   2.0159204     -4.7101031      0             -1.6875989      5.5784953    
     11490   2.0572273     -4.7712743      0             -1.6868379      5.3216566    
     11500   2.0088672     -4.6991537      0             -1.6872244      5.5362639    
     11510   2.0333051     -4.7351719      0             -1.6866025      5.40254      
     11520   2.0249976     -4.7222705      0             -1.6861566      5.4292894    
     11530   2.0834914     -4.8115499      0             -1.6877353      5.1382213    
     11540   2.0470591     -4.7567443      0             -1.6875532      5.3182033    
     11550   2.0441183     -4.7523058      0             -1.687524       5.3311228    
     11560   2.0422339     -4.749882       0             -1.6879255      5.3312142    
     11570   2.029751      -4.7314826      0             -1.688242       5.4045921    
     11580   2.0399678     -4.7467917      0             -1.6882329      5.3719546    
     11590   2.0665609     -4.7864442      0             -1.6880137      5.2132395    
     11600   2.0278745     -4.7282135      0             -1.6877863      5.4558456    
     11610   2.0100298     -4.7019074      0             -1.6882351      5.5923171    
     11620   2.0136529     -4.7070882      0             -1.6879838      5.5813889    
     11630   2.045187      -4.7535504      0             -1.6871663      5.3982747    
     11640   2.0359565     -4.739575       0             -1.6870303      5.4124505    
     11650   2.0220609     -4.7193843      0             -1.6876735      5.4798483    
     11660   2.0036454     -4.691516       0             -1.6874159      5.5901615    
     11670   2.02007       -4.7160834      0             -1.6873575      5.4921116    
     11680   2.0164129     -4.7107897      0             -1.687547       5.4931169    
     11690   2.0164494     -4.7113347      0             -1.6880373      5.4755266    
     11700   2.0411911     -4.7489823      0             -1.6885893      5.3302444    
     11710   2.0378884     -4.7427343      0             -1.6872931      5.3328681    
     11720   2.0167855     -4.7109783      0             -1.687177       5.4675506    
     11730   2.0225007     -4.71999        0             -1.6876199      5.4666979    
     11740   2.0518149     -4.7643423      0             -1.6880209      5.300275     
     11750   2.004797      -4.6930791      0             -1.6872524      5.5537352    
     11760   2.0136043     -4.7070236      0             -1.6879919      5.4971928    
     11770   2.0742042     -4.7978664      0             -1.6879762      5.1487318    
     11780   2.031169      -4.7330262      0             -1.6876595      5.4016239    
     11790   2.0300608     -4.7309719      0             -1.6872667      5.4004192    
     11800   2.0195038     -4.7152227      0             -1.6873458      5.4525518    
     11810   2.0599991     -4.7764833      0             -1.6878911      5.2783091    
     11820   2.0513134     -4.7629682      0             -1.6873986      5.3068068    
     11830   2.0390167     -4.7459286      0             -1.6887957      5.3568771    
     11840   2.0186241     -4.7144921      0             -1.6879342      5.5143534    
     11850   2.0303046     -4.7317414      0             -1.6876706      5.4408987    
     11860   2.0414651     -4.7490817      0             -1.6882779      5.3484991    
     11870   2.0514879     -4.7654168      0             -1.6895857      5.2703171    
     11880   2.0504805     -4.7622255      0             -1.6879047      5.3155315    
     11890   2.0636338     -4.7816172      0             -1.6875754      5.2936727    
     11900   2.0128481     -4.7057165      0             -1.6878187      5.5668021    
     11910   1.9964478     -4.6800361      0             -1.6867275      5.6453137    
     11920   2.0112455     -4.7025097      0             -1.6870146      5.5719447    
     11930   2.0273986     -4.726443       0             -1.6867293      5.499048     
     11940   2.0427837     -4.7496717      0             -1.6868908      5.4114039    
     11950   2.0249392     -4.7232041      0             -1.6871779      5.5200262    
     11960   1.9999485     -4.6858443      0             -1.6872869      5.6686137    
     11970   2.0681495     -4.788287       0             -1.6874747      5.2961167    
     11980   2.063802      -4.7820704      0             -1.6877766      5.280008     
     11990   2.028877      -4.7291475      0             -1.6872172      5.4785286    
     12000   1.9935882     -4.6760398      0             -1.6870186      5.6864101    
Loop time of 16.0055 on 1 procs for 10000 steps with 2197 atoms

Performance: 269906.911 tau/day, 624.785 timesteps/s, 1.373 Matom-step/s
100.0% CPU use with 1 MPI tasks x no OpenMP threads

MPI task timing breakdown:
Section |  min time  |  avg time  |  max time  |%varavg| %total
---------------------------------------------------------------
Pair    | 11.478     | 11.478     | 11.478     |   0.0 | 71.71
Neigh   | 3.978      | 3.978      | 3.978      |   0.0 | 24.85
Comm    | 0.22531    | 0.22531    | 0.22531    |   0.0 |  1.41
Output  | 0.0069354  | 0.0069354  | 0.0069354  |   0.0 |  0.04
Modify  | 0.24258    | 0.24258    | 0.24258    |   0.0 |  1.52
Other   |            | 0.07518    |            |       |  0.47

Nlocal:           2197 ave        2197 max        2197 min
Histogram: 1 0 0 0 0 0 0 0 0 0
Nghost:           3873 ave        3873 max        3873 min
Histogram: 1 0 0 0 0 0 0 0 0 0
Neighs:          79167 ave       79167 max       79167 min
Histogram: 1 0 0 0 0 0 0 0 0 0

Total # of neighbors = 79167
Ave neighs/atom = 36.034137
Neighbor list builds = 1867
Dangerous builds = 0
Total wall time: 0:00:18
