LAMMPS (3 Aug 2023 - Development - )
#-------------------------------------------------------------------------------
# Example LAMMPS script for running a Lennard-Jones molecular dynamics
# simulation at constant volume with the NVE ensemble. The system is
# equilibrated with the NVT ensemble and then time-integrated with NVE.
#-------------------------------------------------------------------------------

#===============================================================================
# Setup the simulation
#===============================================================================

#-----------------------------------------
#  define units for parameters and output
#-----------------------------------------
units       lj

#---------------------------------------
#  specify periodic boundary conditions
#---------------------------------------
boundary p p p

# define atom_style
# full covers everything
# atom_style full

#----------------------------------------------------------------
#  define simulation volume
#  If I want N = 512 atoms
#  and I want a density of rho = 0.5 atoms/lj-sigma^3
#  Then I can determine the size of a cube by
#  size = (N/rho)^(1/3)
#----------------------------------------------------------------
variable side      equal 10.0793684
region      boxid block 0.0 ${side} 0.0 ${side} 0.0 ${side}
region      boxid block 0.0 10.0793684 0.0 ${side} 0.0 ${side}
region      boxid block 0.0 10.0793684 0.0 10.0793684 0.0 ${side}
region      boxid block 0.0 10.0793684 0.0 10.0793684 0.0 10.0793684
create_box  1 boxid
Created orthogonal box = (0 0 0) to (10.079368 10.079368 10.079368)
  1 by 2 by 3 MPI processor grid

#-------------------------------------------------------------------------------
#  specify initial positions of atoms
#  sc = simple cubic
#  0.5 = density in lj units
#-------------------------------------------------------------------------------
lattice     sc 0.50
Lattice spacing in x,y,z = 1.259921 1.259921 1.259921

#-------------------------------------------------------------------------------
#  place atoms of type 1 in boxid
#-------------------------------------------------------------------------------
create_atoms    1 box
Created 512 atoms
  using lattice units in orthogonal box = (0 0 0) to (10.079368 10.079368 10.079368)
  create_atoms CPU = 0.000 seconds

#-------------------------------------------------------------------------------
#   define mass of atom type 1 (m/m =1 in reduced units)
#-------------------------------------------------------------------------------
mass        1 1.0

#-------------------------------------------------------------------------------
#  specify initial velocity of atoms
#  group = all
#  reduced temperature is T = 1.0 = lj-eps/kb
#  seed for random number generator
#  distribution is gaussian (e.g. Maxwell-Boltzmann)
#-------------------------------------------------------------------------------
velocity    all create 1.0 87287 dist gaussian

#-------------------------------------------------------------------------------
#  specify interaction potential
#  pairwise interaction via the Lennard-Jones potential with a cut-off at 2.5 lj-sigma
#-------------------------------------------------------------------------------
pair_style  lj/cut 2.5

#-------------------------------------------------------------------------------
#  specify parameters between atoms of type 1 with an atom of type 1
#  epsilon = 1.0, sigma = 1.0, cutoff = 2.5 in reduced units
#-------------------------------------------------------------------------------
pair_coeff  1 1 1.0 1.0 2.5

#-------------------------------------------------------------------------------
# add long-range tail correction
#-------------------------------------------------------------------------------
pair_modify tail yes

#-------------------------------------------------------------------------------
#  specify parameters for neighbor list
#  rnbr = rcut + 0.3
#-------------------------------------------------------------------------------
neighbor    0.3 bin

#-------------------------------------------------------------------------------
#  specify thermodynamic properties to be output
#  pe = potential energy
#  ke = kinetic energy
#  etotal = pe + ke
#  temp = temperature
#  press = pressure
#  density = number density
#  output every thousand steps
#  norm = normalize by # of atoms (yes or no)
#-------------------------------------------------------------------------------
#thermo_style custom step pe ke etotal temp press

#-------------------------------------------------------------------------------
# report instantaneous thermo values every 10 steps
#-------------------------------------------------------------------------------
thermo 10

#-------------------------------------------------------------------------------
# normalize thermo properties by number of atoms (yes or no)
#-------------------------------------------------------------------------------
thermo_modify norm yes

#-------------------
#  define time step
#-------------------
timestep 0.005

#===============================================================================
# System equilibration
#===============================================================================

#------------------------------------------------
#  specify NVE ensemble for all atoms and ID = 1
#------------------------------------------------
fix     1 all nve

#--------------------------------------------------------------
# run 1000 steps in the NVE ensemble to equilibrate positions
#--------------------------------------------------------------
run 1000
Generated 0 of 0 mixed pair_coeff terms from geometric mixing rule
Neighbor list info ...
  update: every = 1 steps, delay = 0 steps, check = yes
  max neighbors/atom: 2000, page size: 100000
  master list distance cutoff = 2.8
  ghost atom cutoff = 2.8
  binsize = 1.4, bins = 8 8 8
  1 neighbor lists, perpetual/occasional/extra = 1 0 0
  (1) pair lj/cut, perpetual
      attributes: half, newton on
      pair build: half/bin/atomonly/newton
      stencil: half/bin/3d
      bin: standard
Per MPI rank memory allocation (min/avg/max) = 3.083 | 3.089 | 3.091 Mbytes
   Step          Temp          E_pair         E_mol          TotEng         Press     
         0   1             -3.3910555      0             -1.8939851     -2.1168568    
        10   0.99064912    -3.395801       0             -1.9127296     -1.9353707    
        20   0.84291292    -3.1770588      0             -1.9151589     -1.0526371    
        30   0.79681184    -3.1123636      0             -1.9194802     -0.54058892   
        40   0.87201322    -3.2307875      0             -1.9253224     -0.56676711   
        50   0.89983433    -3.2782289      0             -1.9311137     -0.50347103   
        60   0.94824433    -3.3552371      0             -1.9356486     -0.52783294   
        70   0.94991146    -3.3588142      0             -1.93673       -0.39556715   
        80   0.96760225    -3.388664       0             -1.9400954     -0.34934126   
        90   0.99745159    -3.4349938      0             -1.9417387     -0.37097213   
       100   0.99430156    -3.4310604      0             -1.9425211     -0.31104545   
       110   0.98483736    -3.4177235      0             -1.9433528     -0.24530524   
       120   0.98063007    -3.4118946      0             -1.9438224     -0.19460051   
       130   1.0078453     -3.4523921      0             -1.9435769     -0.25670969   
       140   1.0132062     -3.4612748      0             -1.9444339     -0.25434517   
       150   1.0275788     -3.483536       0             -1.9451784     -0.27496249   
       160   1.0395329     -3.5021737      0             -1.9459199     -0.2772696    
       170   1.026724      -3.4835016      0             -1.9464235     -0.17587804   
       180   1.0050207     -3.450043       0             -1.9454564     -0.071545891  
       190   1.0488954     -3.517819       0             -1.9475488     -0.23631353   
       200   1.0332067     -3.4939995      0             -1.9472165     -0.21315288   
       210   1.0507698     -3.5196393      0             -1.9465631     -0.29806398   
       220   1.0747059     -3.5552078      0             -1.9462974     -0.37246171   
       230   1.0620229     -3.5368556      0             -1.9469326     -0.28952409   
       240   1.0629573     -3.5383557      0             -1.9470338     -0.25771945   
       250   1.0566978     -3.528517       0             -1.9465661     -0.2036172    
       260   1.0743013     -3.5548232      0             -1.9465187     -0.24728239   
       270   1.0913477     -3.5801565      0             -1.9463323     -0.2923394    
       280   1.0614761     -3.5359004      0             -1.9467961     -0.16854367   
       290   1.0774217     -3.559282       0             -1.9463059     -0.18193147   
       300   1.0391097     -3.5022553      0             -1.9466349     -0.0026503321 
       310   1.0285366     -3.4869546      0             -1.9471631      0.051496727  
       320   1.03735       -3.5007527      0             -1.9477668     -0.023723802  
       330   1.0557815     -3.5282648      0             -1.9476856     -0.1531107    
       340   1.0588101     -3.5329111      0             -1.9477978     -0.19829114   
       350   1.0479759     -3.5159929      0             -1.9470993     -0.18239428   
       360   1.0687389     -3.5472071      0             -1.9472298     -0.26462826   
       370   1.0414315     -3.5054462      0             -1.9463501     -0.17470693   
       380   1.0428591     -3.5071296      0             -1.9458962     -0.18528372   
       390   1.0480399     -3.5154441      0             -1.9464547     -0.20323798   
       400   1.0354292     -3.4971521      0             -1.9470417     -0.15118304   
       410   1.0476013     -3.5160781      0             -1.9477453     -0.20093685   
       420   1.0715114     -3.5530525      0             -1.9489246     -0.31135877   
       430   1.0654162     -3.5450171      0             -1.9500141     -0.31224583   
       440   1.0456305     -3.515541       0             -1.9501587     -0.23228739   
       450   1.081297      -3.5685379      0             -1.9497603     -0.32960136   
       460   1.0777616     -3.5628632      0             -1.9493783     -0.27600699   
       470   1.0792296     -3.5654276      0             -1.949745      -0.21755668   
       480   1.0754459     -3.5601153      0             -1.9500971     -0.17410627   
       490   1.0774246     -3.5641547      0             -1.9511742     -0.18529914   
       500   1.0709111     -3.5533084      0             -1.9500792     -0.14291153   
       510   1.0490388     -3.5212821      0             -1.9507973     -0.043687346  
       520   1.0752434     -3.5608223      0             -1.9511074     -0.14727411   
       530   1.1036062     -3.6037308      0             -1.9515547     -0.2772411    
       540   1.0854052     -3.5759779      0             -1.95105       -0.23011388   
       550   1.0598745     -3.5376411      0             -1.9509344     -0.14694314   
       560   1.0537401     -3.5281563      0             -1.9506333     -0.10782638   
       570   1.0520043     -3.5256788      0             -1.9507543     -0.10504066   
       580   1.0763064     -3.5617182      0             -1.9504118     -0.2241919    
       590   1.0711075     -3.5545525      0             -1.9510292     -0.23561916   
       600   1.0603482     -3.5379046      0             -1.9504887     -0.18934139   
       610   1.0497187     -3.5217153      0             -1.9502126     -0.12997621   
       620   1.0763938     -3.5630147      0             -1.9515775     -0.19277437   
       630   1.0603969     -3.5384428      0             -1.9509541     -0.10134067   
       640   1.0545753     -3.5294669      0             -1.9506935     -0.050828935  
       650   1.0470398     -3.5181669      0             -1.9506748      0.0024920198 
       660   1.0745211     -3.5584281      0             -1.9497945     -0.098617574  
       670   1.0701415     -3.5514263      0             -1.9493492     -0.093256755  
       680   1.0344048     -3.4988753      0             -1.9502987      0.008110282  
       690   1.0870094     -3.5764475      0             -1.949118      -0.2045671    
       700   1.0631075     -3.5408363      0             -1.9492896     -0.16892766   
       710   1.1010135     -3.597838       0             -1.9495434     -0.32852769   
       720   1.0674371     -3.5478265      0             -1.9497982     -0.20822961   
       730   1.0741667     -3.5574671      0             -1.949364      -0.19385155   
       740   1.0665268     -3.5455415      0             -1.9488758     -0.12494049   
       750   1.0860047     -3.5736027      0             -1.9477772     -0.16623403   
       760   1.0705468     -3.5509495      0             -1.9482657     -0.094993591  
       770   1.0316788     -3.4927055      0             -1.9482098      0.042374181  
       780   1.0604588     -3.5354295      0             -1.9478481     -0.07395415   
       790   1.0764998     -3.5605693      0             -1.9489733     -0.14674905   
       800   1.0517818     -3.5237533      0             -1.949162      -0.10375759   
       810   1.070937      -3.5518877      0             -1.9486198     -0.18693096   
       820   1.0817847     -3.5684289      0             -1.9489211     -0.1968934    
       830   1.0566582     -3.5297166      0             -1.9478249     -0.071973768  
       840   1.0498066     -3.5193574      0             -1.9477231     -0.043423753  
       850   1.0696184     -3.5494726      0             -1.9481786     -0.1445651    
       860   1.0933587     -3.5861529      0             -1.949318      -0.24686387   
       870   1.0335963     -3.4979342      0             -1.9505679     -0.042978427  
       880   1.0626895     -3.5407121      0             -1.9497912     -0.15291811   
       890   1.0730119     -3.5550356      0             -1.9486614     -0.23324792   
       900   1.0763696     -3.5605991      0             -1.9491981     -0.2615862    
       910   1.0627152     -3.5402731      0             -1.9493138     -0.20223654   
       920   1.0781649     -3.5623066      0             -1.948218      -0.26454194   
       930   1.0734262     -3.5550218      0             -1.9480273     -0.28055092   
       940   1.0615559     -3.5372208      0             -1.947997      -0.25082703   
       950   1.0494284     -3.5200046      0             -1.9489364     -0.20854221   
       960   1.0360068     -3.4992485      0             -1.9482735     -0.17672034   
       970   1.0712089     -3.5522658      0             -1.9485907     -0.30686964   
       980   1.0344221     -3.4963284      0             -1.9477259     -0.17626187   
       990   1.0471815     -3.515585       0             -1.9478807     -0.20091118   
      1000   1.0429149     -3.5091081      0             -1.9477911     -0.21289867   
Loop time of 0.0774782 on 6 procs for 1000 steps with 512 atoms

Performance: 5575760.589 tau/day, 12906.853 timesteps/s, 6.608 Matom-step/s
97.9% CPU use with 6 MPI tasks x no OpenMP threads

MPI task timing breakdown:
Section |  min time  |  avg time  |  max time  |%varavg| %total
---------------------------------------------------------------
Pair    | 0.015516   | 0.025519   | 0.030972   |   3.3 | 32.94
Neigh   | 0.0087141  | 0.011353   | 0.012814   |   1.3 | 14.65
Comm    | 0.027915   | 0.034677   | 0.047558   |   3.5 | 44.76
Output  | 0.0010979  | 0.0011979  | 0.0014605  |   0.3 |  1.55
Modify  | 0.00063924 | 0.00091488 | 0.0011264  |   0.0 |  1.18
Other   |            | 0.003816   |            |       |  4.93

Nlocal:        85.3333 ave          93 max          73 min
Histogram: 1 0 1 0 0 0 0 1 1 2
Nghost:        654.667 ave         677 max         645 min
Histogram: 3 0 0 2 0 0 0 0 0 1
Neighs:         1938.5 ave        2365 max        1480 min
Histogram: 1 0 1 0 1 1 0 0 1 1

Total # of neighbors = 11631
Ave neighs/atom = 22.716797
Neighbor list builds = 126
Dangerous builds = 0

#------------------------------------------------
#  stop fix (ID 1) to change the thermostat
#------------------------------------------------
unfix 1

#--------------------------------------------------------------
# Specify NVT ensemble to set a desired temperature and ID = 2
#--------------------------------------------------------------
#  ensemble = nvt (Nose-Hoover)
#  temp = temperature
#  initial temperature = 1.0
#  final temperature = 1.0
#  thermostat controller gain = 0.1 (units of time, bigger is less tight control)
#--------------------------------------------------------------
fix     2 all nvt temp 1.0 1.0 0.1

#--------------------------------------------------------------
# run 1000 steps in the NVT ensemble to equilibrate thermostat
#--------------------------------------------------------------
run     1000
Generated 0 of 0 mixed pair_coeff terms from geometric mixing rule
Per MPI rank memory allocation (min/avg/max) = 3.083 | 3.089 | 3.092 Mbytes
   Step          Temp          E_pair         E_mol          TotEng         Press     
      1000   1.0429149     -3.5091081      0             -1.9477911     -0.21289867   
      1010   1.0592902     -3.5536573      0             -1.9678254     -0.37510653   
      1020   1.0054509     -3.5370788      0             -2.0318481     -0.40340948   
      1030   0.97664745    -3.5485898      0             -2.0864799     -0.46235018   
      1040   0.97614823    -3.5631923      0             -2.1018298     -0.49980513   
      1050   0.96748181    -3.5429746      0             -2.0945863     -0.44332936   
      1060   0.97821401    -3.5367233      0             -2.0722682     -0.39384702   
      1070   0.98645182    -3.5170365      0             -2.0402488     -0.31376686   
      1080   1.0178583     -3.5324602      0             -2.0086548     -0.30332877   
      1090   1.0250729     -3.5255833      0             -1.9909771     -0.2562677    
      1100   1.0177379     -3.5187025      0             -1.9950774     -0.21161235   
      1110   0.99357515    -3.5025275      0             -2.0150757     -0.13675631   
      1120   0.96779959    -3.4958233      0             -2.0469593     -0.12029752   
      1130   0.98458925    -3.5896564      0             -2.1156571     -0.36936639   
      1140   0.92040478    -3.5671655      0             -2.1892548     -0.35537728   
      1150   0.91847466    -3.575655       0             -2.2006339     -0.37894105   
      1160   0.95693053    -3.5893017      0             -2.1567094     -0.40404481   
      1170   0.98422056    -3.5696576      0             -2.0962102     -0.34125199   
      1180   1.0025747     -3.5560046      0             -2.0550798     -0.27439687   
      1190   1.0182738     -3.5542626      0             -2.0298351     -0.25297886   
      1200   1.047077      -3.5922548      0             -2.0247068     -0.33783661   
      1210   0.99730886    -3.544881       0             -2.0518395     -0.24244042   
      1220   0.9818026     -3.5524922      0             -2.0826647     -0.29978882   
      1230   0.96436275    -3.5471916      0             -2.1034727     -0.33630205   
      1240   1.0034571     -3.6095287      0             -2.1072828     -0.48994182   
      1250   0.97035655    -3.5596837      0             -2.1069918     -0.34702165   
      1260   1.0015955     -3.5900431      0             -2.0905843     -0.34116989   
      1270   1.0169003     -3.5843155      0             -2.0619442     -0.26178689   
      1280   1.0233519     -3.5669316      0             -2.0349018     -0.1821765    
      1290   1.0344453     -3.5731844      0             -2.024547      -0.16532297   
      1300   1.0299756     -3.579701       0             -2.0377551     -0.18445339   
      1310   1.0234789     -3.6194051      0             -2.0871852     -0.31196836   
      1320   0.97463514    -3.6118897      0             -2.1527924     -0.3129206    
      1330   0.93845246    -3.5881024      0             -2.1831731     -0.2533374    
      1340   0.96196232    -3.6112763      0             -2.1711511     -0.29116485   
      1350   0.98042293    -3.6025676      0             -2.1348055     -0.24909217   
      1360   1.0235768     -3.6273684      0             -2.0950019     -0.31185418   
      1370   1.0451157     -3.6482579      0             -2.0836462     -0.38448327   
      1380   1.0025426     -3.5989655      0             -2.0980888     -0.29114773   
      1390   0.99560203    -3.5985083      0             -2.1080221     -0.28986053   
      1400   0.96808786    -3.5571104      0             -2.1078148     -0.19803466   
      1410   0.99408618    -3.5841859      0             -2.095969      -0.26612877   
      1420   1.0197825     -3.6098539      0             -2.0831678     -0.33554519   
      1430   1.022975      -3.6149456      0             -2.0834801     -0.35048066   
      1440   1.0034266     -3.6034322      0             -2.101232      -0.32527497   
      1450   0.98494396    -3.6194442      0             -2.1449138     -0.36779001   
      1460   0.92047448    -3.6018115      0             -2.2237965     -0.36464367   
      1470   0.89850152    -3.6062899      0             -2.2611699     -0.40457136   
      1480   0.92424157    -3.616893       0             -2.2332384     -0.39852446   
      1490   0.94518767    -3.5751946      0             -2.1601822     -0.25645212   
      1500   1.0075083     -3.6180468      0             -2.1097361     -0.32567512   
      1510   0.99262422    -3.5762496      0             -2.0902213     -0.20560747   
      1520   1.0328391     -3.6236959      0             -2.0774631     -0.29960536   
      1530   1.0337257     -3.6343154      0             -2.0867554     -0.31381095   
      1540   1.0069654     -3.630957       0             -2.1234591     -0.28300104   
      1550   0.98212229    -3.639532       0             -2.1692258     -0.30367051   
      1560   0.95085416    -3.6281255      0             -2.2046299     -0.28532176   
      1570   0.94946084    -3.6260223      0             -2.2046126     -0.29894295   
      1580   0.96095887    -3.6001726      0             -2.1615496     -0.25927688   
      1590   1.0327902     -3.6264136      0             -2.080254      -0.32913581   
      1600   1.04642       -3.6114179      0             -2.0448536     -0.30791388   
      1610   1.0327517     -3.6007799      0             -2.054678      -0.27896955   
      1620   0.99403149    -3.5646589      0             -2.0765239     -0.19195849   
      1630   1.0104863     -3.6051732      0             -2.0924042     -0.29167613   
      1640   0.97554725    -3.5675486      0             -2.1070858     -0.23539201   
      1650   1.006526      -3.6190127      0             -2.1121724     -0.3809519    
      1660   0.98814746    -3.5978761      0             -2.1185499     -0.33204577   
      1670   0.96057825    -3.5625565      0             -2.1245033     -0.22029833   
      1680   0.97444304    -3.5591345      0             -2.1003247     -0.19342041   
      1690   1.0166428     -3.5609747      0             -2.0389889     -0.17298285   
      1700   1.0463729     -3.5530744      0             -1.9865805     -0.15928755   
      1710   1.0349203     -3.5212336      0             -1.9718851     -0.11153715   
      1720   1.0356236     -3.5399774      0             -1.989576      -0.16288013   
      1730   0.98761373    -3.5121609      0             -2.0336337     -0.12736394   
      1740   0.97981068    -3.5472818      0             -2.0804363     -0.2232392    
      1750   0.98525532    -3.5933301      0             -2.1183336     -0.32755229   
      1760   0.95990255    -3.5839003      0             -2.1468587     -0.3039036    
      1770   0.94840568    -3.5705961      0             -2.1507662     -0.27826935   
      1780   1.0208558     -3.6221766      0             -2.0938837     -0.41098517   
      1790   1.0554415     -3.5774554      0             -1.9973853     -0.28609025   
      1800   1.0689973     -3.5652208      0             -1.9648567     -0.22635562   
      1810   1.0429802     -3.5487014      0             -1.9872867     -0.18018591   
      1820   0.99426444    -3.5271615      0             -2.0386777     -0.1294926    
      1830   0.98524736    -3.5522055      0             -2.0772209     -0.19497846   
      1840   0.97869865    -3.5589653      0             -2.0937846     -0.24186918   
      1850   0.99005843    -3.5757774      0             -2.0935903     -0.30891655   
      1860   0.99806573    -3.5786279      0             -2.0844534     -0.31353455   
      1870   0.99936313    -3.5608444      0             -2.0647275     -0.23280119   
      1880   1.0171991     -3.5315812      0             -2.0087625     -0.093610797  
      1890   1.0798569     -3.5451033      0             -1.9284816     -0.057485225  
      1900   1.0812746     -3.5260838      0             -1.9073397     -0.014861376  
      1910   1.0492635     -3.521388       0             -1.9505667     -0.059276799  
      1920   1.0190904     -3.5450504      0             -2.0194005     -0.18676909   
      1930   1.0068815     -3.5723698      0             -2.0649974     -0.3052812    
      1940   0.98224067    -3.5601987      0             -2.0897154     -0.30068092   
      1950   0.96822261    -3.5464007      0             -2.0969034     -0.28271904   
      1960   0.97869747    -3.5456087      0             -2.0804298     -0.30978802   
      1970   1.0097785     -3.5582395      0             -2.0465301     -0.35500643   
      1980   1.0149085     -3.5294897      0             -2.0101004     -0.28882588   
      1990   1.0480301     -3.5490853      0             -1.9801105     -0.29059686   
      2000   1.0256646     -3.5018767      0             -1.9663846     -0.12953143   
Loop time of 0.076671 on 6 procs for 1000 steps with 512 atoms

Performance: 5634463.845 tau/day, 13042.740 timesteps/s, 6.678 Matom-step/s
97.9% CPU use with 6 MPI tasks x no OpenMP threads

MPI task timing breakdown:
Section |  min time  |  avg time  |  max time  |%varavg| %total
---------------------------------------------------------------
Pair    | 0.016893   | 0.023197   | 0.032934   |   3.9 | 30.26
Neigh   | 0.0084996  | 0.01026    | 0.012799   |   1.5 | 13.38
Comm    | 0.023444   | 0.035193   | 0.042753   |   3.8 | 45.90
Output  | 0.00098657 | 0.001074   | 0.0013924  |   0.4 |  1.40
Modify  | 0.0035233  | 0.0038916  | 0.0046126  |   0.7 |  5.08
Other   |            | 0.003055   |            |       |  3.98

Nlocal:        85.3333 ave         100 max          78 min
Histogram: 2 0 1 1 1 0 0 0 0 1
Nghost:        680.167 ave         692 max         656 min
Histogram: 1 0 0 0 0 0 2 0 2 1
Neighs:           1951 ave        2513 max        1758 min
Histogram: 2 2 1 0 0 0 0 0 0 1

Total # of neighbors = 11706
Ave neighs/atom = 22.863281
Neighbor list builds = 121
Dangerous builds = 0

#===============================================================================
# Production phase
#===============================================================================
variable          tm    equal step
variable          Et    equal etotal
variable          Ep    equal pe
variable          Ek    equal ke
variable          tmp   equal temp
variable          pr    equal press

fix statdump all print 1 "${tm} ${Et} ${Ep} ${Ek} ${tmp} ${pr}" screen no file output.txt

#--------------------------------------------------------------
# reset thermostat to NVE and run a larger number of steps
#--------------------------------------------------------------
unfix 2
fix 3 all nve


#-----------------------------------
#   save configurations
#   dumpid = 1
#   all atoms
#   atomic symbol is Ar
#   save positions every 100 steps
#   filename = output.xyz
#
#----------------------------------
#dump 1 all xyz 100 output.xyz
#dump_modify 1 element Ar

#------------------------------------------
# run 10000 more steps in the NVT ensemble
#------------------------------------------
run     10000
Generated 0 of 0 mixed pair_coeff terms from geometric mixing rule
Per MPI rank memory allocation (min/avg/max) = 3.083 | 3.089 | 3.092 Mbytes
   Step          Temp          E_pair         E_mol          TotEng         Press     
      2000   1.0256646     -3.5018767      0             -1.9663846     -0.12953143   
      2010   1.031115      -3.5094904      0             -1.9658388     -0.12161037   
      2020   1.0581992     -3.5515085      0             -1.9673098     -0.20165424   
      2030   1.0304152     -3.5086963      0             -1.9660923     -0.086441848  
      2040   1.0357867     -3.5169291      0             -1.9662836     -0.10657644   
      2050   1.0639841     -3.5581601      0             -1.9653011     -0.20880418   
      2060   1.0438606     -3.5284121      0             -1.9656793     -0.14609196   
      2070   1.0488838     -3.5349864      0             -1.9647336     -0.20185137   
      2080   1.0612454     -3.5541553      0             -1.9653963     -0.27202409   
      2090   1.0277013     -3.5038577      0             -1.9653166     -0.16264129   
      2100   1.0099752     -3.4776162      0             -1.9656124     -0.14877299   
      2110   1.0577825     -3.5478943      0             -1.9643195     -0.39044789   
      2120   1.0466783     -3.53116        0             -1.964209      -0.36406106   
      2130   1.0330181     -3.5115566      0             -1.9650559     -0.26798245   
      2140   1.0270615     -3.5030288      0             -1.9654456     -0.24337045   
      2150   1.0601689     -3.5534426      0             -1.9662952     -0.34752184   
      2160   1.0563831     -3.5467708      0             -1.965291      -0.29039698   
      2170   1.055679      -3.5456972      0             -1.9652716     -0.22789958   
      2180   1.0613205     -3.5550817      0             -1.9662102     -0.21670243   
      2190   1.0580911     -3.5502851      0             -1.9662484     -0.19663947   
      2200   1.0321866     -3.5108469      0             -1.9655911     -0.10988068   
      2210   1.0739921     -3.5728061      0             -1.9649644     -0.26595698   
      2220   1.0644973     -3.558985       0             -1.9653576     -0.26360502   
      2230   1.0848472     -3.5896594      0             -1.9655668     -0.33839262   
      2240   1.068967      -3.5666693      0             -1.9663505     -0.25349149   
      2250   1.0486094     -3.5352657      0             -1.9654237     -0.1404703    
      2260   1.0562154     -3.5475169      0             -1.9662881     -0.16299882   
      2270   1.056667      -3.5489881      0             -1.9670833     -0.17562051   
      2280   1.0436821     -3.5301452      0             -1.9676797     -0.11839164   
      2290   1.0741549     -3.5762738      0             -1.9681884     -0.22093228   
      2300   1.0628828     -3.5602856      0             -1.9690752     -0.17199163   
      2310   1.0618343     -3.5579619      0             -1.9683213     -0.13145094   
      2320   1.0306885     -3.5118918      0             -1.9688786      0.0048864402 
      2330   1.0414132     -3.5267725      0             -1.9677037     -0.047950845  
      2340   1.0489186     -3.5389087      0             -1.9686038     -0.15129137   
      2350   1.0366015     -3.5201279      0             -1.9682625     -0.18966922   
      2360   1.086796      -3.5950647      0             -1.9680547     -0.39486404   
      2370   1.0384901     -3.5222487      0             -1.967556      -0.20937055   
      2380   1.0216231     -3.4960999      0             -1.9666583     -0.12582111   
      2390   1.0645292     -3.5613785      0             -1.9677034     -0.24628093   
      2400   1.0512467     -3.5422665      0             -1.9684763     -0.15914835   
      2410   1.0253353     -3.5038994      0             -1.9689003     -0.02338856   
      2420   1.0367461     -3.5200239      0             -1.9679421     -0.03253241   
      2430   1.0776187     -3.5802303      0             -1.9669593     -0.18281409   
      2440   1.08057       -3.5854646      0             -1.9677753     -0.20802607   
      2450   1.0833921     -3.590376       0             -1.9684618     -0.22569246   
      2460   1.0873794     -3.595718       0             -1.9678346     -0.24426121   
      2470   1.0846102     -3.5922555      0             -1.9685177     -0.23475861   
      2480   1.0593621     -3.5546608      0             -1.9687213     -0.14333286   
      2490   1.0692716     -3.5695624      0             -1.9687876     -0.1608763    
      2500   1.0641641     -3.5625191      0             -1.9693906     -0.11867317   
      2510   1.0714205     -3.5726499      0             -1.9686581     -0.10172677   
      2520   1.0571818     -3.5530063      0             -1.9703308     -0.009984519  
      2530   1.05809       -3.5536031      0             -1.9695679      0.0058245984 
      2540   1.0822765     -3.5885721      0             -1.9683281     -0.08263497   
      2550   1.0936018     -3.6053253      0             -1.9681265     -0.15870015   
      2560   1.0716033     -3.5731693      0             -1.9689038     -0.12982288   
      2570   1.0978601     -3.6125587      0             -1.9689851     -0.26594222   
      2580   1.0902197     -3.6010562      0             -1.9689207     -0.26393396   
      2590   1.0592003     -3.5529391      0             -1.9672419     -0.16304181   
      2600   1.0794259     -3.5827628      0             -1.9667863     -0.21194664   
      2610   1.0676166     -3.5657572      0             -1.9674601     -0.1572124    
      2620   1.0730845     -3.5734258      0             -1.9669429     -0.18013084   
      2630   1.0601547     -3.554049       0             -1.9669229     -0.15207147   
      2640   1.0716545     -3.5714122      0             -1.96707       -0.18079554   
      2650   1.0491911     -3.5378449      0             -1.9671321     -0.060951228  
      2660   1.0351989     -3.5164557      0             -1.9666902     -0.011844657  
      2670   1.0450253     -3.5317249      0             -1.9672486     -0.094672524  
      2680   1.0605002     -3.5545521      0             -1.9669088     -0.21736644   
      2690   1.0537383     -3.5431995      0             -1.9656792     -0.26044172   
      2700   1.0567939     -3.5480691      0             -1.9659743     -0.28060146   
      2710   1.0256063     -3.4999457      0             -1.9645409     -0.18386824   
      2720   1.0456355     -3.5303131      0             -1.9649232     -0.28128317   
      2730   1.0438467     -3.5279869      0             -1.9652749     -0.27516086   
      2740   1.0493071     -3.5358048      0             -1.9649183     -0.2521108    
      2750   1.0146173     -3.4832821      0             -1.9643287     -0.11471451   
      2760   1.039627      -3.521117       0             -1.9647222     -0.2414379    
      2770   1.0589966     -3.5493258      0             -1.9639334     -0.36568727   
      2780   1.0521817     -3.5396781      0             -1.9644881     -0.36575108   
      2790   1.0485598     -3.5355238      0             -1.965756      -0.34779043   
      2800   1.0391775     -3.5210906      0             -1.9653687     -0.32126687   
      2810   1.0689753     -3.5641145      0             -1.9637834     -0.41092827   
      2820   1.0630172     -3.5551026      0             -1.9636911     -0.35438752   
      2830   1.0547061     -3.5418482      0             -1.962879      -0.27734405   
      2840   1.0545736     -3.5422802      0             -1.9635094     -0.25219138   
      2850   1.0575288     -3.5459211      0             -1.9627261     -0.26613142   
      2860   1.0586406     -3.5470246      0             -1.9621651     -0.28322076   
      2870   1.0559508     -3.543761       0             -1.9629284     -0.27815016   
      2880   1.0542671     -3.5416424      0             -1.9633304     -0.27016608   
      2890   1.0301264     -3.5041884      0             -1.9620168     -0.17419676   
      2900   1.0245424     -3.4971223      0             -1.9633103     -0.19172386   
      2910   1.0176743     -3.4880421      0             -1.9645121     -0.22353692   
      2920   1.0478591     -3.5327613      0             -1.9640425     -0.35366318   
      2930   1.0539822     -3.5420297      0             -1.9641443     -0.38303468   
      2940   1.0055469     -3.4692336      0             -1.9638591     -0.19725308   
      2950   1.0208848     -3.4925979      0             -1.9642616     -0.22944743   
      2960   1.0711317     -3.5676413      0             -1.9640818     -0.37948448   
      2970   1.0419153     -3.5241462      0             -1.9643257     -0.2235188    
      2980   1.0359432     -3.5157655      0             -1.9648857     -0.16155875   
      2990   1.056753      -3.5466308      0             -1.9645973     -0.19883221   
      3000   1.0314589     -3.5083747      0             -1.9642082     -0.079350168  
      3010   1.0702233     -3.5662146      0             -1.964015      -0.17911521   
      3020   1.04351       -3.5272422      0             -1.9650344     -0.056849591  
      3030   1.0501918     -3.5377176      0             -1.9655067     -0.076530149  
      3040   1.0582071     -3.5488561      0             -1.9646457     -0.12408055   
      3050   1.0230359     -3.4960165      0             -1.9644598     -0.04129651   
      3060   1.0574495     -3.5480794      0             -1.9650031     -0.2187071    
      3070   1.0637425     -3.5569442      0             -1.9644469     -0.27031017   
      3080   1.0344735     -3.5141846      0             -1.965505      -0.17130925   
      3090   1.0672411     -3.5636383      0             -1.9659033     -0.27937593   
      3100   1.0680763     -3.5643202      0             -1.9653349     -0.24899734   
      3110   1.0839657     -3.5894338      0             -1.9666608     -0.2246183    
      3120   1.0563157     -3.5467281      0             -1.9653492     -0.058488205  
      3130   1.0497302     -3.5363504      0             -1.9648304      0.0086261611 
      3140   1.0663418     -3.5616509      0             -1.9652623     -0.046911779  
      3150   1.0684843     -3.5655143      0             -1.9659182     -0.080793651  
      3160   1.0755356     -3.5763699      0             -1.9662175     -0.13679309   
      3170   1.1025116     -3.6175243      0             -1.9669869     -0.24161684   
      3180   1.0940828     -3.6041342      0             -1.9662152     -0.18377851   
      3190   1.0469521     -3.5341428      0             -1.9667819      0.020709353  
      3200   1.031427      -3.5101287      0             -1.96601        0.065915163  
      3210   1.0627081     -3.5589622      0             -1.9680134     -0.096392764  
      3220   1.054439      -3.5463442      0             -1.9677749     -0.10798908   
      3230   1.0284496     -3.5046839      0             -1.9650225     -0.052064677  
      3240   1.069998      -3.5673556      0             -1.9654934     -0.2303175    
      3250   1.054539      -3.5451235      0             -1.9664045     -0.1955726    
      3260   1.0561355     -3.5476593      0             -1.9665503     -0.19160728   
      3270   1.0505133     -3.5385678      0             -1.9658754     -0.15108323   
      3280   1.0415596     -3.5249655      0             -1.9656775     -0.11784425   
      3290   1.0494375     -3.5373801      0             -1.9662983     -0.12561776   
      3300   1.0344598     -3.5149541      0             -1.9662951     -0.059121574  
      3310   1.055753      -3.5462346      0             -1.9656981     -0.16351756   
      3320   1.0555978     -3.5456263      0             -1.9653221     -0.22123025   
      3330   1.0520811     -3.5403887      0             -1.9653493     -0.25655394   
      3340   1.0419458     -3.5262912      0             -1.9664251     -0.23965539   
      3350   1.0459539     -3.5317998      0             -1.9659333     -0.267287     
      3360   1.0546705     -3.5442495      0             -1.9653337     -0.29825347   
      3370   1.0388021     -3.5201314      0             -1.9649716     -0.25250607   
      3380   1.084586      -3.589339       0             -1.9656375     -0.43278844   
      3390   1.0937804     -3.6026833      0             -1.9652171     -0.45543653   
      3400   1.0541899     -3.5441088      0             -1.9659124     -0.29065428   
      3410   1.0390972     -3.5212563      0             -1.9656547     -0.23091078   
      3420   1.0716803     -3.5701452      0             -1.9657644     -0.35341835   
      3430   1.0656448     -3.5622135      0             -1.9668682     -0.32966262   
      3440   1.0380414     -3.5200508      0             -1.9660298     -0.2029899    
      3450   1.0697577     -3.5677718      0             -1.9662693     -0.28781969   
      3460   1.0627124     -3.5575858      0             -1.9666307     -0.24200672   
      3470   1.0480483     -3.5350734      0             -1.9660715     -0.15860648   
      3480   1.0485067     -3.536691       0             -1.9670028     -0.1487584    
      3490   1.0918736     -3.6023146      0             -1.9677031     -0.30571076   
      3500   1.071408      -3.5717522      0             -1.9677791     -0.20938949   
      3510   1.0840382     -3.5911666      0             -1.9682853     -0.24257809   
      3520   1.0699276     -3.5701487      0             -1.9683918     -0.19546765   
      3530   1.048837      -3.5392979      0             -1.9691152     -0.10612684   
      3540   1.0496886     -3.5392794      0             -1.9678217     -0.081417971  
      3550   1.0669728     -3.5649783      0             -1.9676451     -0.12055784   
      3560   1.0610566     -3.5559793      0             -1.967503      -0.055894685  
      3570   1.0320208     -3.5113829      0             -1.9663752      0.072763679  
      3580   1.0644518     -3.5609813      0             -1.9674222     -0.033482725  
      3590   1.0697171     -3.5690973      0             -1.9676556     -0.064396702  
      3600   1.0626474     -3.557822       0             -1.9669641     -0.069017594  
      3610   1.0671466     -3.5642757      0             -1.9666823     -0.11977276   
      3620   1.0794362     -3.5825225      0             -1.9665306     -0.18682699   
      3630   1.1035663     -3.6183125      0             -1.9661962     -0.29550996   
      3640   1.0965905     -3.609457       0             -1.9677839     -0.26508649   
      3650   1.073615      -3.5763071      0             -1.96903       -0.15712132   
      3660   1.07264       -3.5748731      0             -1.9690556     -0.12695405   
      3670   1.0589052     -3.5536043      0             -1.9683488     -0.065510065  
      3680   1.0850707     -3.5925458      0             -1.9681186     -0.15446879   
      3690   1.0625379     -3.55938        0             -1.9686861     -0.11880664   
      3700   1.104247      -3.620997       0             -1.9678617     -0.30394286   
      3710   1.0612618     -3.5572518      0             -1.9684682     -0.15678677   
      3720   1.0750095     -3.5775056      0             -1.9681408     -0.19838549   
      3730   1.0889629     -3.5975143      0             -1.9672603     -0.26977166   
      3740   1.0773592     -3.5805436      0             -1.9676612     -0.25639732   
      3750   1.0883346     -3.5965864      0             -1.9672729     -0.30656679   
      3760   1.0882252     -3.5964493      0             -1.9672997     -0.2903858    
      3770   1.0693122     -3.5672515      0             -1.966416      -0.2077863    
      3780   1.0573567     -3.549244       0             -1.9663067     -0.15317948   
      3790   1.0497005     -3.5381141      0             -1.9666386     -0.15167408   
      3800   1.0891652     -3.5980191      0             -1.9674623     -0.32745242   
      3810   1.0931792     -3.6050617      0             -1.9684955     -0.35531003   
      3820   1.0844528     -3.5917733      0             -1.9682713     -0.28568402   
      3830   1.0472193     -3.5345179      0             -1.966757      -0.1329508    
      3840   1.0750359     -3.5759427      0             -1.9665384     -0.22682538   
      3850   1.0556245     -3.5465302      0             -1.966186      -0.16316306   
      3860   1.0410906     -3.525056       0             -1.9664701     -0.10270771   
      3870   1.066988      -3.5633771      0             -1.9660211     -0.17775068   
      3880   1.0736652     -3.5716827      0             -1.9643305     -0.20725425   
      3890   1.0703161     -3.5668827      0             -1.9645442     -0.20863167   
      3900   1.0882938     -3.5943266      0             -1.9650743     -0.26811723   
      3910   1.088615      -3.5954864      0             -1.9657532     -0.25938087   
      3920   1.0328192     -3.5110508      0             -1.9648478     -0.043420562  
      3930   1.0457783     -3.5298823      0             -1.9642786     -0.064563415  
      3940   1.0589327     -3.5507396      0             -1.9654429     -0.11150435   
      3950   1.0607648     -3.5534403      0             -1.9654009     -0.12627051   
      3960   1.0149814     -3.4846256      0             -1.965127       0.014793882  
      3970   1.0310284     -3.5097729      0             -1.9662508     -0.081856716  
      3980   1.0580103     -3.550422       0             -1.9665062     -0.24521842   
      3990   1.0714051     -3.5708658      0             -1.9668971     -0.34557883   
      4000   1.0935204     -3.603704       0             -1.9666271     -0.40117198   
      4010   1.062155      -3.5567184      0             -1.9665977     -0.23112008   
      4020   1.0692499     -3.5669912      0             -1.9662489     -0.19492865   
      4030   1.0318247     -3.5100927      0             -1.9653786     -0.060586098  
      4040   1.0774743     -3.5791793      0             -1.9661245     -0.25739074   
      4050   1.0617856     -3.556063       0             -1.9664953     -0.22517457   
      4060   1.0447754     -3.5307242      0             -1.9666219     -0.15962647   
      4070   1.061793      -3.5555586      0             -1.9659799     -0.22545884   
      4080   1.0557133     -3.5466245      0             -1.9661475     -0.18494014   
      4090   1.013416      -3.4829537      0             -1.9657987     -0.048049173  
      4100   1.0443665     -3.5278651      0             -1.964375      -0.21420854   
      4110   1.0812022     -3.5822276      0             -1.9635919     -0.38177056   
      4120   1.0803049     -3.5817442      0             -1.9644518     -0.35157864   
      4130   1.0519435     -3.5394015      0             -1.9645682     -0.17323667   
      4140   1.0529162     -3.5395987      0             -1.9633091     -0.15119879   
      4150   1.0720083     -3.56964        0             -1.9647681     -0.24991099   
      4160   1.078521      -3.5785829      0             -1.963961      -0.28355173   
      4170   1.0527383     -3.5409243      0             -1.964901      -0.18712186   
      4180   1.0581023     -3.5509483      0             -1.9668947     -0.19589202   
      4190   1.0830576     -3.5873185      0             -1.9659051     -0.26091791   
      4200   1.0619614     -3.5553885      0             -1.9655577     -0.15079832   
      4210   1.054991      -3.5441648      0             -1.9647691     -0.099748434  
      4220   1.0602146     -3.5530679      0             -1.9658521     -0.1004978    
      4230   1.0540168     -3.5446721      0             -1.9667349     -0.056718355  
      4240   1.0786068     -3.58115        0             -1.9663998     -0.1359142    
      4250   1.0928167     -3.6011281      0             -1.9651047     -0.20092646   
      4260   1.0811202     -3.5847871      0             -1.9662741     -0.1620008    
      4270   1.0836223     -3.5891983      0             -1.9669394     -0.13913161   
      4280   1.0720768     -3.5704884      0             -1.9655141     -0.063608524  
      4290   1.0862578     -3.5926384      0             -1.966434      -0.10191647   
      4300   1.0860389     -3.5926035      0             -1.9667268     -0.11200285   
      4310   1.0941469     -3.6054313      0             -1.9674165     -0.14902732   
      4320   1.0837923     -3.5902141      0             -1.9677009     -0.11223442   
      4330   1.0912658     -3.6024014      0             -1.9686997     -0.13688807   
      4340   1.0991945     -3.6131816      0             -1.9676101     -0.16339231   
      4350   1.0689832     -3.5681         0             -1.967757      -0.055821759  
      4360   1.0606285     -3.5555078      0             -1.9676723     -0.02475997   
      4370   1.0696118     -3.5696435      0             -1.9683594     -0.087643709  
      4380   1.0697639     -3.5691429      0             -1.9676311     -0.13855478   
      4390   1.0875336     -3.5963616      0             -1.9682473     -0.23340344   
      4400   1.0752803     -3.57799        0             -1.9682198     -0.18129265   
      4410   1.0637053     -3.5592314      0             -1.9667898     -0.11131095   
      4420   1.0536728     -3.543974       0             -1.9665517     -0.071240826  
      4430   1.0683051     -3.5658294      0             -1.9665015     -0.13771555   
      4440   1.0634031     -3.5593062      0             -1.967317      -0.15170021   
      4450   1.0850475     -3.5913202      0             -1.9669278     -0.24134096   
      4460   1.0830315     -3.5898619      0             -1.9684876     -0.23023647   
      4470   1.0569442     -3.5484945      0             -1.9661748     -0.11140363   
      4480   1.0579446     -3.5506429      0             -1.9668255     -0.075262151  
      4490   1.0300477     -3.5090573      0             -1.9670035      0.031615374  
      4500   1.0444657     -3.5314106      0             -1.967772      -0.0437218    
      4510   1.0485994     -3.5367718      0             -1.9669448     -0.10272484   
      4520   1.0638983     -3.5597848      0             -1.9670543     -0.21379587   
      4530   1.0625405     -3.5569053      0             -1.9662074     -0.28218944   
      4540   1.0605949     -3.553831       0             -1.9660459     -0.31062639   
      4550   1.0480473     -3.5346199      0             -1.9656194     -0.27901693   
      4560   1.0515429     -3.5399879      0             -1.9657542     -0.26409504   
      4570   1.0228088     -3.495987       0             -1.9647703     -0.12515323   
      4580   1.0404689     -3.5235676      0             -1.9659125     -0.16162282   
      4590   1.0325584     -3.5103848      0             -1.9645723     -0.15683007   
      4600   1.0915603     -3.599034       0             -1.9648914     -0.38888252   
      4610   1.0443724     -3.5292919      0             -1.9657929     -0.24932181   
      4620   1.0375162     -3.5178577      0             -1.964623      -0.23059797   
      4630   1.0379929     -3.5183047      0             -1.9643563     -0.25777953   
      4640   1.0572119     -3.5466235      0             -1.963903      -0.3181956    
      4650   1.0389913     -3.5191375      0             -1.9636945     -0.25368678   
      4660   1.0471506     -3.5322038      0             -1.9645457     -0.31076624   
      4670   1.0519237     -3.538372       0             -1.9635682     -0.36782031   
      4680   1.0489964     -3.5356834      0             -1.965262      -0.37392843   
      4690   1.0311832     -3.5097069      0             -1.9659531     -0.31460615   
      4700   1.0305065     -3.5074276      0             -1.9646869     -0.30654828   
      4710   1.0300882     -3.5070569      0             -1.9649423     -0.29922918   
      4720   1.054554      -3.5445094      0             -1.965768      -0.35838387   
      4730   1.0326093     -3.5109753      0             -1.9650866     -0.25283099   
      4740   1.0115398     -3.4808059      0             -1.9664597     -0.1514767    
      4750   0.99901403    -3.4610513      0             -1.965457      -0.10463425   
      4760   1.0364611     -3.5157539      0             -1.9640987     -0.28316332   
      4770   1.0400487     -3.520563       0             -1.9635369     -0.32534067   
      4780   1.0151354     -3.4832759      0             -1.9635469     -0.2323252    
      4790   1.0356805     -3.5158778      0             -1.9653913     -0.28292394   
      4800   1.0157991     -3.4863481      0             -1.9656254     -0.20273737   
      4810   1.0369352     -3.5183061      0             -1.9659413     -0.27523157   
      4820   1.0287658     -3.5060842      0             -1.9659495     -0.26428859   
      4830   1.0753479     -3.577361       0             -1.9674896     -0.43991882   
      4840   1.0639287     -3.5615906      0             -1.9688146     -0.38314126   
      4850   1.0672439     -3.5657418      0             -1.9680026     -0.31783314   
      4860   1.0520402     -3.5420945      0             -1.9671164     -0.19040236   
      4870   1.0610459     -3.5549349      0             -1.9664746     -0.1605965    
      4880   1.0835832     -3.5887419      0             -1.9665416     -0.17527598   
      4890   1.068184      -3.5672667      0             -1.9681201     -0.050203287  
      4900   1.0541358     -3.5458195      0             -1.9677041      0.055275842  
      4910   1.1081939     -3.6269545      0             -1.9679104     -0.11748151   
      4920   1.0784846     -3.5819614      0             -1.9673941     -0.048922136  
      4930   1.0793636     -3.5827746      0             -1.9668914     -0.085129827  
      4940   1.0563368     -3.5492977      0             -1.9678873     -0.019441883  
      4950   1.0964264     -3.6102598      0             -1.9688324     -0.15549296   
      4960   1.0976251     -3.6129572      0             -1.9697353     -0.15374309   
      4970   1.0799188     -3.5864787      0             -1.9697643     -0.060993619  
      4980   1.1042407     -3.6217387      0             -1.9686128     -0.13451222   
      4990   1.0989065     -3.6135113      0             -1.968371      -0.12996507   
      5000   1.0855199     -3.5919187      0             -1.966819      -0.10626818   
      5010   1.0802986     -3.5852136      0             -1.9679306     -0.11693741   
      5020   1.1190655     -3.6443489      0             -1.9690291     -0.26535552   
      5030   1.0583627     -3.5547309      0             -1.9702875     -0.044069061  
      5040   1.095012      -3.6091937      0             -1.9698838     -0.11812655   
      5050   1.063254      -3.5599233      0             -1.9681573      0.024469612  
      5060   1.0615376     -3.5588532      0             -1.9696567      0.020073856  
      5070   1.0710579     -3.5734721      0             -1.9700232     -0.062812258  
      5080   1.0882496     -3.599148       0             -1.9699619     -0.16890938   
      5090   1.0890473     -3.599332       0             -1.9689516     -0.1721099    
      5100   1.0884778     -3.597843       0             -1.9683152     -0.14140363   
      5110   1.0960993     -3.6097952      0             -1.9688574     -0.11541885   
      5120   1.0669995     -3.566006       0             -1.9686328      0.034407284  
      5130   1.0611587     -3.556545       0             -1.9679158      0.049872459  
      5140   1.0703647     -3.5686914      0             -1.9662802     -0.024276101  
      5150   1.1024548     -3.616256       0             -1.9658037     -0.18089549   
      5160   1.0907417     -3.5990039      0             -1.9660869     -0.18927471   
      5170   1.068145      -3.5662127      0             -1.9671244     -0.11845711   
      5180   1.0598693     -3.554814       0             -1.9681152     -0.096829459  
      5190   1.0700163     -3.5686582      0             -1.9667686     -0.16012369   
      5200   1.0565413     -3.5479159      0             -1.9661993     -0.13303615   
      5210   1.0482975     -3.5362328      0             -1.9668577     -0.13193788   
      5220   1.0783514     -3.580748       0             -1.9663802     -0.2942405    
      5230   1.0846837     -3.5904214      0             -1.9665737     -0.37804444   
      5240   1.0732194     -3.5723427      0             -1.9656578     -0.34190118   
      5250   1.0624442     -3.5559509      0             -1.9653972     -0.28260948   
      5260   1.0557742     -3.545982       0             -1.9654138     -0.24137577   
      5270   1.0396014     -3.5222526      0             -1.9658963     -0.16936157   
      5280   1.0373633     -3.5193838      0             -1.966378      -0.178988     
      5290   1.0703706     -3.5694585      0             -1.9670385     -0.33029621   
      5300   1.0603762     -3.5547103      0             -1.9672525     -0.32994031   
      5310   1.064677      -3.5599731      0             -1.9660769     -0.36405247   
      5320   1.0572906     -3.5495704      0             -1.966732      -0.33219677   
      5330   1.054038      -3.5437632      0             -1.9657942     -0.2774935    
      5340   1.057087      -3.5488789      0             -1.9663454     -0.24401271   
      5350   1.0608821     -3.5543262      0             -1.9661111     -0.23424164   
      5360   1.0549168     -3.5456903      0             -1.9664057     -0.19661175   
      5370   1.0726416     -3.5729312      0             -1.9671113     -0.22649828   
      5380   1.0516464     -3.5404656      0             -1.9660769     -0.14889422   
      5390   1.065339      -3.5611574      0             -1.96627       -0.20710015   
      5400   1.089772      -3.597732       0             -1.9662667     -0.26573977   
      5410   1.0745289     -3.5749867      0             -1.9663413     -0.16583295   
      5420   1.0677367     -3.5658004      0             -1.9673235     -0.10406272   
      5430   1.0606624     -3.5558918      0             -1.9680057     -0.070501061  
      5440   1.0337635     -3.5154231      0             -1.9678065      0.01358708   
      5450   1.0794169     -3.5844455      0             -1.9684826     -0.13399488   
      5460   1.066555      -3.5667614      0             -1.9700537     -0.049708099  
      5470   1.0589174     -3.554311       0             -1.9690372      0.019943098  
      5480   1.0692291     -3.5696684      0             -1.9689573     -0.010582394  
      5490   1.0936047     -3.6059253      0             -1.9687222     -0.11471278   
      5500   1.0942458     -3.6074847      0             -1.9693218     -0.15970848   
      5510   1.0859118     -3.5939386      0             -1.9682524     -0.18276207   
      5520   1.0835207     -3.5899118      0             -1.967805      -0.21232157   
      5530   1.0704571     -3.5694145      0             -1.966865      -0.18955309   
      5540   1.0729983     -3.5717284      0             -1.9653745     -0.20980794   
      5550   1.0831972     -3.5863761      0             -1.9647537     -0.24375738   
      5560   1.0585187     -3.5498938      0             -1.9652168     -0.14070392   
      5570   1.0463985     -3.5307457      0             -1.9642135     -0.095526302  
      5580   1.0771138     -3.5773479      0             -1.9648328     -0.20604106   
      5590   1.0692515     -3.5653075      0             -1.9645627     -0.20052133   
      5600   1.0698471     -3.5667675      0             -1.9651311     -0.23135446   
      5610   1.0632771     -3.5574147      0             -1.9656142     -0.21403122   
      5620   1.066359      -3.560821       0             -1.9644067     -0.19901175   
      5630   1.0167704     -3.4842458      0             -1.9620689     -0.0036517623 
      5640   1.0835101     -3.585445       0             -1.9633542     -0.22897347   
      5650   1.0339427     -3.5102567      0             -1.9623717     -0.084693644  
      5660   1.0532486     -3.5400612      0             -1.963274      -0.16597052   
      5670   1.0504328     -3.5371361      0             -1.9645644     -0.17536624   
      5680   1.0739658     -3.5722214      0             -1.9644191     -0.25240907   
      5690   1.09137       -3.5981837      0             -1.9643261     -0.30066783   
      5700   1.0789395     -3.5804245      0             -1.9651762     -0.22740656   
      5710   1.0360732     -3.5161927      0             -1.9651182     -0.044051916  
      5720   1.0531856     -3.5414082      0             -1.9647153     -0.10455466   
      5730   1.0521725     -3.539754       0             -1.9645778     -0.13165277   
      5740   1.0390229     -3.5196799      0             -1.9641896     -0.10261203   
      5750   1.0366715     -3.5171117      0             -1.9651416     -0.11619536   
      5760   1.0348194     -3.5158891      0             -1.9666917     -0.16970776   
      5770   1.0475741     -3.5349964      0             -1.9667043     -0.27094831   
      5780   1.0375725     -3.5171924      0             -1.9638733     -0.28980374   
      5790   1.0719974     -3.5688814      0             -1.9640259     -0.45708085   
      5800   1.0395865     -3.5201146      0             -1.9637805     -0.33101365   
      5810   1.0194704     -3.4901731      0             -1.9639541     -0.23511987   
      5820   1.0446587     -3.5283408      0             -1.9644133     -0.30313301   
      5830   1.0038346     -3.4672587      0             -1.9644477     -0.16315475   
      5840   1.0550585     -3.5447794      0             -1.9652826     -0.3497517    
      5850   1.0383918     -3.5203732      0             -1.9658277     -0.26875925   
      5860   1.0447387     -3.529447       0             -1.9653996     -0.25028076   
      5870   1.0449543     -3.5295708      0             -1.9652008     -0.22708427   
      5880   1.0309655     -3.5079554      0             -1.9645276     -0.16945304   
      5890   1.0444358     -3.5284332      0             -1.9648394     -0.23976092   
      5900   1.06623       -3.5600959      0             -1.9638746     -0.34037297   
      5910   1.0437933     -3.5259206      0             -1.9632886     -0.24000034   
      5920   1.0311151     -3.5074993      0             -1.9638476     -0.16646289   
      5930   1.0465119     -3.5291763      0             -1.9624744     -0.23546079   
      5940   1.0546182     -3.5412553      0             -1.9624177     -0.27485723   
      5950   1.0749203     -3.57342        0             -1.9641888     -0.34591058   
      5960   1.0785161     -3.5791395      0             -1.964525      -0.32519054   
      5970   1.0406868     -3.5217331      0             -1.9637517     -0.15364732   
      5980   1.0610058     -3.5532875      0             -1.9648871     -0.20024202   
      5990   1.0817812     -3.5832439      0             -1.9637413     -0.26912176   
      6000   1.0695927     -3.5646863      0             -1.9634309     -0.18999874   
      6010   1.046382      -3.5309069      0             -1.9643995     -0.060129829  
      6020   1.0621455     -3.5538193      0             -1.9637128     -0.14356333   
      6030   1.0679312     -3.562896       0             -1.9641278     -0.20479671   
      6040   1.0519048     -3.5388921      0             -1.9641166     -0.17214333   
      6050   1.0529416     -3.5407924      0             -1.9644648     -0.19285172   
      6060   1.0292872     -3.5056441      0             -1.9647287     -0.14597248   
      6070   1.0603138     -3.5524659      0             -1.9651016     -0.29925123   
      6080   1.0942038     -3.6031409      0             -1.9650408     -0.45822878   
      6090   1.0622323     -3.5537348      0             -1.9634984     -0.35709523   
      6100   1.0579494     -3.5468542      0             -1.9630295     -0.30626797   
      6110   1.0342459     -3.511081       0             -1.9627421     -0.19152583   
      6120   1.0458828     -3.5296349      0             -1.9638748     -0.20497437   
      6130   1.0468097     -3.5308913      0             -1.9637436     -0.19896575   
      6140   1.0585512     -3.5485674      0             -1.9638418     -0.24997892   
      6150   1.0395885     -3.5201653      0             -1.9638283     -0.21366608   
      6160   1.0179678     -3.4873311      0             -1.9633617     -0.17655458   
      6170   1.0352473     -3.5138774      0             -1.9640393     -0.26865034   
      6180   1.048545      -3.53412        0             -1.9643745     -0.33853593   
      6190   1.0317685     -3.5080415      0             -1.9634116     -0.26970362   
      6200   1.0302378     -3.5055936      0             -1.9632552     -0.22776094   
      6210   1.0526232     -3.5398991      0             -1.9640481     -0.266845     
      6220   1.0001695     -3.4609418      0             -1.9636178     -0.055555195  
      6230   1.0227773     -3.4948471      0             -1.9636776     -0.12423561   
      6240   1.0687335     -3.5645306      0             -1.9645615     -0.31156804   
      6250   1.0689906     -3.5655675      0             -1.9652134     -0.32527961   
      6260   1.0496465     -3.5370741      0             -1.9656794     -0.22074852   
      6270   1.0282026     -3.5042458      0             -1.9649541     -0.10139434   
      6280   1.0595953     -3.5514384      0             -1.9651497     -0.19888416   
      6290   1.0697149     -3.5665533      0             -1.9651148     -0.22044946   
      6300   1.0481339     -3.534176       0             -1.9650459     -0.13287137   
      6310   1.0736947     -3.5723491      0             -1.9649527     -0.22327259   
      6320   1.0856362     -3.5904976      0             -1.965224      -0.24244091   
      6330   1.0734638     -3.572284       0             -1.9652332     -0.14080283   
      6340   1.057423      -3.5482567      0             -1.9652201     -0.06286241   
      6350   1.060767      -3.5526324      0             -1.9645896     -0.086053371  
      6360   1.0349182     -3.5142644      0             -1.9649191     -0.032157073  
      6370   1.0629917     -3.5554103      0             -1.964037      -0.16283112   
      6380   1.0748233     -3.5736474      0             -1.9645614     -0.21620867   
      6390   1.0501136     -3.5373         0             -1.9652061     -0.11074119   
      6400   1.0755037     -3.5762156      0             -1.9661109     -0.19884476   
      6410   1.0689388     -3.567103       0             -1.9668265     -0.18818192   
      6420   1.0601944     -3.554337       0             -1.9671515     -0.14645045   
      6430   1.0491114     -3.5386655      0             -1.968072      -0.10189876   
      6440   1.0418447     -3.5257647      0             -1.96605       -0.061087911  
      6450   1.0751446     -3.5769194      0             -1.9673523     -0.12714328   
      6460   1.0392449     -3.5234849      0             -1.9676622      0.021205445  
      6470   1.0650407     -3.5610589      0             -1.966618      -0.072691774  
      6480   1.052145      -3.5425804      0             -1.9674454     -0.071940166  
      6490   1.0452541     -3.5319338      0             -1.9671149     -0.091391161  
      6500   1.0486763     -3.5366278      0             -1.9666856     -0.14693648   
      6510   1.0679924     -3.5663804      0             -1.9675206     -0.2561749    
      6520   1.0443263     -3.5299751      0             -1.9665452     -0.18860429   
      6530   1.0389286     -3.5205409      0             -1.9651918     -0.17867179   
      6540   1.0126808     -3.4806663      0             -1.964612      -0.10418334   
      6550   1.0419827     -3.5242298      0             -1.9643084     -0.19807715   
      6560   1.0208914     -3.4921261      0             -1.9637799     -0.11960912   
      6570   1.0539348     -3.541509       0             -1.9636944     -0.24820028   
      6580   1.0570485     -3.5464016      0             -1.9639257     -0.29969616   
      6590   1.0464655     -3.5309369      0             -1.9643045     -0.27051091   
      6600   1.0523723     -3.5397558      0             -1.9642804     -0.28084061   
      6610   1.0704108     -3.5655872      0             -1.9631069     -0.33202334   
      6620   1.0374059     -3.5171168      0             -1.9640472     -0.19940553   
      6630   1.028194      -3.502618       0             -1.9633394     -0.17938457   
      6640   1.0327265     -3.5088958      0             -1.9628317     -0.21398631   
      6650   1.0322447     -3.507042       0             -1.961699      -0.23502503   
      6660   1.0560054     -3.5440331      0             -1.9631188     -0.34605552   
      6670   1.0401934     -3.5188232      0             -1.9615805     -0.27936686   
      6680   1.057146      -3.5442889      0             -1.9616669     -0.28768617   
      6690   1.0125997     -3.4786297      0             -1.9626968     -0.097464089  
      6700   1.0380911     -3.5181371      0             -1.9640418     -0.16465287   
      6710   1.0587142     -3.5492501      0             -1.9642804     -0.23521798   
      6720   1.0506613     -3.5367215      0             -1.9638076     -0.192466     
      6730   1.0573147     -3.5462965      0             -1.9634221     -0.16550507   
      6740   1.0582803     -3.5488169      0             -1.9644968     -0.14669749   
      6750   1.0586022     -3.5487621      0             -1.9639601     -0.17527799   
      6760   1.0578669     -3.5476859      0             -1.9639848     -0.20761988   
      6770   1.06415       -3.5569095      0             -1.9638022     -0.2268194    
      6780   1.0400573     -3.5211233      0             -1.9640844     -0.14421314   
      6790   1.0579285     -3.5487447      0             -1.9649513     -0.22844763   
      6800   1.0321659     -3.5104258      0             -1.9652009     -0.15225728   
      6810   1.0268482     -3.5015854      0             -1.9643215     -0.14216429   
      6820   1.0365701     -3.5154031      0             -1.9635848     -0.18595423   
      6830   1.001907      -3.4634015      0             -1.9634763     -0.088697166  
      6840   1.0471041     -3.5318498      0             -1.9642613     -0.30275218   
      6850   1.0465889     -3.5318685      0             -1.9650513     -0.3672169    
      6860   1.0336445     -3.5133549      0             -1.9659164     -0.34102291   
      6870   1.037913      -3.5198295      0             -1.9660008     -0.34025909   
      6880   1.0338609     -3.5140173      0             -1.9662548     -0.30242569   
      6890   1.0616995     -3.5551218      0             -1.965683      -0.35580369   
      6900   1.050091      -3.5373408      0             -1.9652807     -0.24893045   
      6910   1.0541506     -3.5442578      0             -1.9661203     -0.19068186   
      6920   1.0508289     -3.5377429      0             -1.9645782     -0.14836268   
      6930   1.0409632     -3.5229887      0             -1.9645936     -0.09447026   
      6940   1.0247386     -3.4986317      0             -1.964526      -0.019176486  
      6950   1.0495432     -3.5355395      0             -1.9642995     -0.099329288  
      6960   1.029938      -3.5069665      0             -1.9650769     -0.045481121  
      6970   1.0046472     -3.4703123      0             -1.9662849      0.022895678  
      6980   1.0611553     -3.5547158      0             -1.9660917     -0.19246424   
      6990   1.039738      -3.5226666      0             -1.9661057     -0.1487283    
      7000   1.0481663     -3.5345662      0             -1.9653876     -0.19294682   
      7010   1.0528924     -3.5419795      0             -1.9657256     -0.1985392    
      7020   1.0711747     -3.5695701      0             -1.9659462     -0.24348943   
      7030   1.0483414     -3.5348441      0             -1.9654034     -0.17469675   
      7040   1.0519037     -3.5395749      0             -1.9648012     -0.21532667   
      7050   1.0723331     -3.5693681      0             -1.9640101     -0.31171519   
      7060   1.038109      -3.5172264      0             -1.9631043     -0.19819627   
      7070   1.0486601     -3.5337328      0             -1.9638149     -0.22861034   
      7080   1.0469583     -3.5316072      0             -1.964237      -0.20601976   
      7090   1.0299801     -3.5069028      0             -1.9649502     -0.11721779   
      7100   1.068283      -3.5646061      0             -1.9653114     -0.22709112   
      7110   1.097341      -3.6082666      0             -1.96547       -0.33982832   
      7120   1.0936944     -3.6023934      0             -1.9650559     -0.32834784   
      7130   1.073046      -3.5719537      0             -1.9655284     -0.23329387   
      7140   1.0527216     -3.5427036      0             -1.9667054     -0.14571158   
      7150   1.0508115     -3.5406416      0             -1.967503      -0.14561394   
      7160   1.0664545     -3.5638801      0             -1.9673227     -0.20039746   
      7170   1.0731698     -3.5745488      0             -1.9679381     -0.1981006    
      7180   1.072327      -3.5727269      0             -1.967378      -0.16257108   
      7190   1.0580286     -3.5513038      0             -1.9673605     -0.08366325   
      7200   1.0307005     -3.5096726      0             -1.9666415     -0.0086757044 
      7210   1.0814403     -3.5856113      0             -1.9666191     -0.20990428   
      7220   1.0581085     -3.5507788      0             -1.9667159     -0.14929284   
      7230   1.0800632     -3.5833972      0             -1.9664667     -0.22929262   
      7240   1.0423024     -3.5263138      0             -1.9659138     -0.10404794   
      7250   1.0538962     -3.5448642      0             -1.9671075     -0.16480409   
      7260   1.0530701     -3.5430669      0             -1.9665469     -0.17236343   
      7270   1.0292708     -3.506799       0             -1.9659082     -0.1060998    
      7280   1.0682962     -3.5655601      0             -1.9662455     -0.23804919   
      7290   1.0478697     -3.5344796      0             -1.9657449     -0.1399899    
      7300   1.0688115     -3.5662088      0             -1.9661228     -0.18223942   
      7310   1.0940866     -3.6047272      0             -1.9668026     -0.24938847   
      7320   1.067509      -3.5644619      0             -1.9663258     -0.15474812   
      7330   1.0676536     -3.564295       0             -1.9659426     -0.14096155   
      7340   1.0747565     -3.5752517      0             -1.9662656     -0.13549993   
      7350   1.032044      -3.5113479      0             -1.9663055      0.029526916  
      7360   1.0572135     -3.5495769      0             -1.966854      -0.039542366  
      7370   1.0882365     -3.5956699      0             -1.9665034     -0.14294641   
      7380   1.0710315     -3.5704131      0             -1.9670037     -0.082282163  
      7390   1.0972029     -3.6099836      0             -1.9673938     -0.1736184    
      7400   1.0661426     -3.5636335      0             -1.9675431     -0.05633734   
      7410   1.0660517     -3.5633012      0             -1.9673468     -0.051064479  
      7420   1.0822704     -3.5872266      0             -1.9669916     -0.1203369    
      7430   1.0646838     -3.5617092      0             -1.9678027     -0.090828384  
      7440   1.1207367     -3.6459867      0             -1.968165      -0.30925261   
      7450   1.0914177     -3.602272       0             -1.9683429     -0.20717255   
      7460   1.0934605     -3.6044905      0             -1.9675032     -0.17079186   
      7470   1.0591711     -3.552399       0             -1.9667454     -0.015875215  
      7480   1.0852054     -3.5908679      0             -1.9662391     -0.11753087   
      7490   1.1014436     -3.615114       0             -1.9661754     -0.21072576   
      7500   1.0654871     -3.5609201      0             -1.9658111     -0.10891843   
      7510   1.0771164     -3.5783382      0             -1.9658193     -0.16551906   
      7520   1.0623084     -3.5565375      0             -1.966187      -0.11293834   
      7530   1.0673073     -3.5647999      0             -1.9669658     -0.11221736   
      7540   1.0880434     -3.5951075      0             -1.96623       -0.16746135   
      7550   1.050113      -3.5394741      0             -1.9673812     -0.019517554  
      7560   1.0415091     -3.5249482      0             -1.9657357      0.002659444  
      7570   1.0655619     -3.5621398      0             -1.9669188     -0.13928029   
      7580   1.0487864     -3.5361899      0             -1.9660828     -0.15121724   
      7590   1.0770025     -3.5787824      0             -1.966434      -0.27367829   
      7600   1.0783444     -3.5807102      0             -1.9663529     -0.30514282   
      7610   1.0636819     -3.5590655      0             -1.9666589     -0.25659301   
      7620   1.043297      -3.5289508      0             -1.9670619     -0.17509094   
      7630   1.0504068     -3.5404071      0             -1.9678743     -0.23208026   
      7640   1.0544206     -3.5447362      0             -1.9661944     -0.29617645   
      7650   1.0139879     -3.4827665      0             -1.9647553     -0.1974078    
      7660   1.0373255     -3.5187774      0             -1.9658282     -0.30280028   
      7670   1.0313914     -3.5092292      0             -1.9651637     -0.2864042    
      7680   1.0237287     -3.4977293      0             -1.9651355     -0.24402442   
      7690   1.0304712     -3.5074853      0             -1.9647976     -0.26180632   
      7700   1.0719914     -3.569343       0             -1.9644965     -0.40115217   
      7710   1.0660329     -3.5607231      0             -1.9647969     -0.3420537    
      7720   1.0500463     -3.5366903      0             -1.9646971     -0.23048575   
      7730   1.0258593     -3.5011844      0             -1.9654008     -0.10254414   
      7740   1.0685119     -3.5648331      0             -1.9651956     -0.2226657    
      7750   1.0440565     -3.5288374      0             -1.9658115     -0.1392559    
      7760   1.0522223     -3.5397595      0             -1.9645088     -0.17715375   
      7770   1.0466182     -3.5306503      0             -1.9637892     -0.16852541   
      7780   1.0592144     -3.5502868      0             -1.9645684     -0.20031337   
      7790   1.0476797     -3.5320543      0             -1.9636042     -0.13216222   
      7800   1.0299877     -3.5064671      0             -1.964503      -0.045956625  
      7810   1.0515113     -3.539025       0             -1.9648386     -0.12765982   
      7820   1.0626529     -3.5567087      0             -1.9658426     -0.20105092   
      7830   1.0617799     -3.5551933      0             -1.9656341     -0.21234445   
      7840   1.0385005     -3.5217612      0             -1.9670529     -0.12739391   
      7850   1.0338169     -3.5153227      0             -1.9676262     -0.11765836   
      7860   1.0459692     -3.5319181      0             -1.9660286     -0.19496415   
      7870   1.0250759     -3.4999848      0             -1.9653741     -0.17003011   
      7880   1.0203007     -3.493343       0             -1.9658812     -0.19601864   
      7890   1.036856      -3.518598       0             -1.9663516     -0.27626885   
      7900   1.0539947     -3.5443831      0             -1.9664789     -0.32424808   
[...]
      9850   1.0706526     -3.5679876      0             -1.9651454     -0.3534004    
      9860   1.0263062     -3.5005772      0             -1.9641247     -0.19724317   
      9870   1.0460493     -3.531075       0             -1.9650657     -0.2626354    
      9880   1.0279087     -3.5039695      0             -1.9651179     -0.15942148   
      9890   1.0297534     -3.5081474      0             -1.9665341     -0.13340838   
      9900   1.0509449     -3.5397892      0             -1.9664508     -0.19175202   
      9910   1.0300233     -3.5077511      0             -1.9657338     -0.10151782   
      9920   1.070702      -3.5689628      0             -1.9660467     -0.22936225   
      9930   1.0628188     -3.5579984      0             -1.966884      -0.20912211   
      9940   1.0659367     -3.5636354      0             -1.9678532     -0.20592609   
      9950   1.0600466     -3.5546314      0             -1.9676671     -0.18080736   
      9960   1.0725435     -3.5730544      0             -1.9673814     -0.2230404    
      9970   1.0536392     -3.5448082      0             -1.9674362     -0.15506473   
      9980   1.108041      -3.6262088      0             -1.9673936     -0.33045786   
      9990   1.0867769     -3.5951282      0             -1.9681468     -0.22531153   
     10000   1.067351      -3.5670613      0             -1.9691618     -0.114757     
     10010   1.0840066     -3.5919545      0             -1.9691203     -0.14940082   
     10020   1.0856034     -3.5946545      0             -1.9694299     -0.14310796   
     10030   1.0870632     -3.5967213      0             -1.9693112     -0.12552094   
     10040   1.083504      -3.5909861      0             -1.9689043     -0.09561892   
     10050   1.0865606     -3.5963201      0             -1.9696624     -0.087127027  
     10060   1.0633959     -3.5615151      0             -1.9695366      0.0010220229 
     10070   1.0915903     -3.604615       0             -1.9704276     -0.11218507   
     10080   1.0790168     -3.5853351      0             -1.9699712     -0.10109879   
     10090   1.0782256     -3.5843324      0             -1.9701529     -0.12211951   
     10100   1.0889922     -3.6001172      0             -1.9698193     -0.17821803   
     10110   1.0791209     -3.5853859      0             -1.969866      -0.1455889    
     10120   1.0908683     -3.6049031      0             -1.9717966     -0.15291871   
     10130   1.0618072     -3.5605828      0             -1.9709828     -0.03560608   
     10140   1.0803924     -3.5896686      0             -1.9722452     -0.12318253   
     10150   1.0468244     -3.5395895      0             -1.9724197     -0.058831358  
     10160   1.0868733     -3.5980344      0             -1.9709087     -0.21589542   
     10170   1.1006287     -3.6186059      0             -1.9708874     -0.25587092   
     10180   1.0986126     -3.615765       0             -1.9710647     -0.24496143   
     10190   1.0671537     -3.5684666      0             -1.9708625     -0.12107535   
     10200   1.0869533     -3.5973036      0             -1.9700582     -0.15489672   
     10210   1.0881108     -3.5982458      0             -1.9692675     -0.14431831   
     10220   1.1086474     -3.6290834      0             -1.9693603     -0.20905674   
     10230   1.1173582     -3.6421644      0             -1.9694007     -0.22501176   
     10240   1.0873379     -3.5975335      0             -1.9697123     -0.09264748   
     10250   1.0691306     -3.5703631      0             -1.9697994     -0.0031327404 
     10260   1.0763509     -3.5806565      0             -1.9692836     -0.014378341  
     10270   1.0901636     -3.6015546      0             -1.9695031     -0.042247189  
     10280   1.1011197     -3.6188288      0             -1.9703751     -0.074628098  
     10290   1.0673195     -3.5672317      0             -1.9693793      0.020409023  
     10300   1.0861205     -3.5953437      0             -1.969345      -0.059264697  
     10310   1.0590166     -3.5566355      0             -1.9712132      0.0198248    
     10320   1.0888745     -3.6015566      0             -1.9714349     -0.088321568  
     10330   1.1106651     -3.6331795      0             -1.9704357     -0.15366984   
     10340   1.066306      -3.5667666      0             -1.9704315     -0.00087285629
     10350   1.0808279     -3.5883817      0             -1.9703064     -0.087800867  
     10360   1.0918247     -3.604154       0             -1.9696157     -0.17978397   
     10370   1.0687041     -3.5680432      0             -1.9681179     -0.16258277   
     10380   1.0999056     -3.6142753      0             -1.9676393     -0.34301162   
     10390   1.0751943     -3.5763944      0             -1.9667529     -0.31076133   
     10400   1.0643152     -3.5614518      0             -1.9680971     -0.26390168   
     10410   1.0542675     -3.5460664      0             -1.9677538     -0.21087552   
     10420   1.0648526     -3.5618451      0             -1.967686      -0.23492199   
     10430   1.0344588     -3.5154384      0             -1.9667809     -0.14608372   
     10440   1.0656543     -3.5622941      0             -1.9669348     -0.26846952   
     10450   1.0616753     -3.5561276      0             -1.966725      -0.2532278    
     10460   1.0649924     -3.5613134      0             -1.966945      -0.21715953   
     10470   1.0632578     -3.5583222      0             -1.9665505     -0.1489285    
     10480   1.0296829     -3.5092737      0             -1.967766      -0.015842067  
     10490   1.0270703     -3.5032849      0             -1.9656885     -0.041522537  
     10500   1.0653016     -3.5603627      0             -1.9655313     -0.19958273   
     10510   1.0337603     -3.5137125      0             -1.9661006     -0.1093913    
     10520   1.053546      -3.5433001      0             -1.9660677     -0.20385689   
     10530   1.0444264     -3.5293239      0             -1.9657442     -0.20824035   
     10540   1.0454341     -3.5300361      0             -1.9649477     -0.21729909   
     10550   1.0792343     -3.5812765      0             -1.9655869     -0.30245759   
     10560   1.0484854     -3.5352796      0             -1.9656232     -0.12422695   
     10570   1.0466145     -3.5333906      0             -1.9665352     -0.051288263  
     10580   1.0572478     -3.5486269      0             -1.9658526     -0.06507318   
     10590   1.0734361     -3.5731542      0             -1.9661449     -0.15075511   
     10600   1.0845517     -3.58975        0             -1.9660999     -0.24177204   
     10610   1.0994573     -3.6120749      0             -1.9661101     -0.32765435   
     10620   1.0618969     -3.5551425      0             -1.9654081     -0.19904392   
     10630   1.0622009     -3.5554747      0             -1.9652852     -0.16633081   
     10640   1.060472      -3.5537225      0             -1.9661213     -0.16686909   
     10650   1.1131248     -3.633694       0             -1.9672679     -0.34493169   
     10660   1.0501223     -3.5384988      0             -1.9663919     -0.091973873  
     10670   1.0493118     -3.5387943      0             -1.9679008     -0.074384763  
     10680   1.0655766     -3.5631194      0             -1.9678763     -0.14976828   
     10690   1.0340247     -3.5153068      0             -1.9672991     -0.077764328  
     10700   1.0697337     -3.5692782      0             -1.9678117     -0.24187005   
     10710   1.0426393     -3.5272027      0             -1.9662984     -0.18038616   
     10720   1.0445356     -3.5288699      0             -1.9651266     -0.19534849   
     10730   1.0436338     -3.5275259      0             -1.9651327     -0.19093397   
     10740   1.0425069     -3.5258535      0             -1.9651474     -0.17847318   
     10750   1.0425244     -3.5264511      0             -1.9657187     -0.17683945   
     10760   1.051495      -3.5412171      0             -1.9670551     -0.22881869   
     10770   1.0672516     -3.5647079      0             -1.9669572     -0.30310848   
     10780   1.0178044     -3.4904754      0             -1.9667506     -0.13745012   
     10790   1.0371693     -3.5201036      0             -1.9673882     -0.21383654   
     10800   1.0674164     -3.5651997      0             -1.9672023     -0.34032097   
     10810   1.0428972     -3.528944       0             -1.9676536     -0.24918926   
     10820   1.0598566     -3.5547853      0             -1.9681054     -0.26943898   
     10830   1.0567244     -3.5498555      0             -1.9678648     -0.19646299   
     10840   1.0362831     -3.517944       0             -1.9665554     -0.077640253  
     10850   1.0368207     -3.5183463      0             -1.9661528     -0.094626385  
     10860   1.0523579     -3.5421223      0             -1.9666685     -0.20913259   
     10870   1.0577753     -3.5496821      0             -1.9661181     -0.28800204   
     10880   1.0612812     -3.5555425      0             -1.96673       -0.31898413   
     10890   1.060725      -3.555296       0             -1.9673161     -0.29783973   
     10900   1.0276134     -3.505468       0             -1.9670585     -0.12790645   
     10910   1.0465785     -3.5335919      0             -1.9667904     -0.13352822   
     10920   1.0155682     -3.4878635      0             -1.9674866     -0.032769126  
     10930   1.0752572     -3.5774283      0             -1.9676926     -0.26441539   
     10940   1.0819322     -3.5868407      0             -1.9671121     -0.30281604   
     10950   1.0807076     -3.5852792      0             -1.9673839     -0.27162877   
     10960   1.0804665     -3.5846783      0             -1.9671439     -0.23146471   
     10970   1.0542896     -3.5453675      0             -1.9670218     -0.10279577   
     10980   1.0537942     -3.5456624      0             -1.9680584     -0.092980931  
     10990   1.0875475     -3.5965523      0             -1.9684173     -0.23038781   
     11000   1.0801467     -3.585369       0             -1.9683135     -0.21371154   
     11010   1.0602291     -3.5548582      0             -1.9676207     -0.11653995   
     11020   1.0512035     -3.5414232      0             -1.9676977     -0.082744706  
     11030   1.078815      -3.583023       0             -1.9679611     -0.20436763   
     11040   1.0846216     -3.5917116      0             -1.9679567     -0.22403509   
     11050   1.0718356     -3.5730337      0             -1.9684205     -0.14493344   
     11060   1.082855      -3.5893259      0             -1.9682157     -0.16075277   
     11070   1.1124771     -3.6339147      0             -1.9684583     -0.23540659   
     11080   1.0718275     -3.5728027      0             -1.9682016     -0.077986706  
     11090   1.0851311     -3.5929991      0             -1.9684815     -0.11804133   
     11100   1.0837531     -3.5900925      0             -1.9676379     -0.13236141   
     11110   1.0928804     -3.603441       0             -1.9673222     -0.18574201   
     11120   1.0616594     -3.5551033      0             -1.9657245     -0.087470588  
     11130   1.088907      -3.5970455      0             -1.9668753     -0.21393839   
     11140   1.0859927     -3.5922398      0             -1.9664324     -0.27794789   
     11150   1.0675735     -3.5645029      0             -1.9662703     -0.26323482   
     11160   1.0752991     -3.5772635      0             -1.9674651     -0.29307315   
     11170   1.0733358     -3.5741881      0             -1.967329      -0.27838869   
     11180   1.0803733     -3.5861824      0             -1.9687875     -0.28373348   
     11190   1.0646146     -3.5617933      0             -1.9679905     -0.17931173   
     11200   1.0436054     -3.529702       0             -1.9673513     -0.062574236  
     11210   1.0685867     -3.5668905      0             -1.9671411     -0.13709284   
     11220   1.0665565     -3.5640842      0             -1.9673741     -0.12230768   
     11230   1.0532461     -3.5450814      0             -1.9682979     -0.071014002  
     11240   1.0740785     -3.5762264      0             -1.9682553     -0.16715699   
     11250   1.0857372     -3.594135       0             -1.9687101     -0.25216969   
     11260   1.0942035     -3.6064792      0             -1.9683796     -0.29381956   
     11270   1.0935111     -3.6061602      0             -1.9690971     -0.21244      
     11280   1.0311591     -3.5123406      0             -1.9686228      0.11045875   
     11290   1.0505124     -3.5408805      0             -1.9681895      0.079268228  
     11300   1.1058127     -3.6233868      0             -1.9679074     -0.15238968   
     11310   1.0777312     -3.5810679      0             -1.9676285     -0.081436892  
     11320   1.0585166     -3.5522837      0             -1.9676099     -0.035406479  
     11330   1.0881031     -3.5960248      0             -1.9670579     -0.18224812   
     11340   1.1004879     -3.6162532      0             -1.9687454     -0.25736731   
     11350   1.1022031     -3.6186113      0             -1.9685357     -0.25662563   
     11360   1.072179      -3.5732371      0             -1.9681097     -0.13639699   
     11370   1.0778343     -3.5821627      0             -1.9685689     -0.13584481   
     11380   1.0549626     -3.5467445      0             -1.9673912     -0.035112786  
     11390   1.0683515     -3.5667735      0             -1.9673762     -0.055970094  
     11400   1.0471811     -3.5360091      0             -1.9683054     -0.00016971079
     11410   1.0652216     -3.562607       0             -1.9678954     -0.12660052   
     11420   1.0800846     -3.5856085      0             -1.9686458     -0.25807336   
     11430   1.0526893     -3.5423148      0             -1.9663649     -0.20516689   
     11440   1.0478293     -3.5341379      0             -1.9654638     -0.19568155   
     11450   1.0424609     -3.5256125      0             -1.9649753     -0.19448295   
     11460   1.0474081     -3.5334493      0             -1.9654057     -0.21981017   
     11470   1.029187      -3.5063886      0             -1.9656233     -0.14937691   
     11480   1.0041363     -3.46787        0             -1.9646073     -0.061220845  
     11490   1.0505148     -3.5370308      0             -1.9643363     -0.23583792   
     11500   1.0691742     -3.5641155      0             -1.9634865     -0.30018629   
     11510   1.0449979     -3.5290147      0             -1.9645794     -0.21021262   
     11520   1.0146479     -3.4827429      0             -1.9637437     -0.11923724   
     11530   1.0453753     -3.5306519      0             -1.9656516     -0.25813396   
     11540   1.0342186     -3.5131849      0             -1.9648869     -0.25920296   
     11550   1.0544095     -3.5427426      0             -1.9642175     -0.33387726   
     11560   1.0091493     -3.4752862      0             -1.9645188     -0.16591626   
     11570   1.0332311     -3.5101801      0             -1.9633605     -0.25893492   
     11580   1.0522599     -3.5386836      0             -1.9633765     -0.36328157   
     11590   1.069617      -3.5645356      0             -1.9632438     -0.46032254   
     11600   1.0766974     -3.5742847      0             -1.962393      -0.46228592   
     11610   1.01425       -3.4805638      0             -1.9621602     -0.17884779   
     11620   1.0214347     -3.4915616      0             -1.9624021     -0.16609272   
     11630   1.0470161     -3.5306774      0             -1.9632206     -0.27496262   
     11640   1.0204914     -3.4893207      0             -1.9615733     -0.20888421   
     11650   1.0404107     -3.5197427      0             -1.9621747     -0.29219037   
     11660   1.0231853     -3.494532       0             -1.9627516     -0.22000833   
     11670   1.0025377     -3.4646657      0             -1.9637962     -0.12567385   
     11680   0.99922618    -3.4589355      0             -1.9630236     -0.11767991   
     11690   1.0222021     -3.4932497      0             -1.9629413     -0.21740783   
     11700   1.0217424     -3.4933994      0             -1.9637793     -0.23492754   
     11710   1.0391566     -3.5195758      0             -1.9638853     -0.28157347   
     11720   1.0419039     -3.5248065      0             -1.9650031     -0.25876121   
     11730   1.0372945     -3.5180859      0             -1.9651831     -0.20199451   
     11740   1.0332917     -3.511013       0             -1.9641028     -0.14397871   
     11750   1.0432499     -3.5267948      0             -1.9649764     -0.15749486   
     11760   1.0481268     -3.5347479      0             -1.9656285     -0.16540238   
     11770   1.0268022     -3.5028112      0             -1.9656161     -0.073575439  
     11780   1.040063      -3.5223867      0             -1.9653392     -0.14816728   
     11790   1.0630744     -3.5563832      0             -1.9648862     -0.27763858   
     11800   1.034004      -3.5123345      0             -1.9643577     -0.21201377   
     11810   1.0425742     -3.5259551      0             -1.9651482     -0.24681564   
     11820   1.0675986     -3.5645019      0             -1.9662318     -0.34346452   
     11830   1.0504216     -3.5378172      0             -1.9652623     -0.28633854   
     11840   1.0507077     -3.5388367      0             -1.9658534     -0.25907554   
     11850   1.0600098     -3.5520185      0             -1.9651093     -0.25471333   
     11860   1.045642      -3.5310311      0             -1.9656315     -0.19401293   
     11870   1.0731904     -3.5716953      0             -1.9650537     -0.29207018   
     11880   1.0910258     -3.5988266      0             -1.9654842     -0.33248824   
     11890   1.0493727     -3.537052       0             -1.9660672     -0.13998617   
     11900   1.0466652     -3.5317542      0             -1.9648228     -0.11911503   
     11910   1.0506718     -3.5374852      0             -1.9645557     -0.16663196   
     11920   1.0611267     -3.5530748      0             -1.9644936     -0.2224727    
     11930   1.0817237     -3.5851929      0             -1.9657764     -0.29358753   
     11940   1.0609716     -3.5555641      0             -1.967215      -0.20348911   
     11950   1.0664246     -3.5634136      0             -1.966901      -0.2015274    
     11960   1.083645      -3.5882997      0             -1.966007      -0.24988432   
     11970   1.0616951     -3.5550902      0             -1.965658      -0.16808604   
     11980   1.0755996     -3.5766253      0             -1.9663771     -0.2164799    
     11990   1.0798651     -3.5814882      0             -1.9648541     -0.21527618   
     12000   1.073347      -3.5713812      0             -1.9645053     -0.16783486   
Loop time of 0.870398 on 6 procs for 10000 steps with 512 atoms

Performance: 4963245.721 tau/day, 11488.995 timesteps/s, 5.882 Matom-step/s
95.5% CPU use with 6 MPI tasks x no OpenMP threads

MPI task timing breakdown:
Section |  min time  |  avg time  |  max time  |%varavg| %total
---------------------------------------------------------------
Pair    | 0.28781    | 0.31695    | 0.34912    |   4.2 | 36.41
Neigh   | 0.090625   | 0.097368   | 0.10288    |   1.6 | 11.19
Comm    | 0.27235    | 0.30978    | 0.3458     |   5.0 | 35.59
Output  | 0.0094784  | 0.0098174  | 0.010862   |   0.5 |  1.13
Modify  | 0.099058   | 0.10335    | 0.11315    |   1.5 | 11.87
Other   |            | 0.03313    |            |       |  3.81

Nlocal:        85.3333 ave          94 max          72 min
Histogram: 1 0 0 0 0 1 1 2 0 1
Nghost:          659.5 ave         681 max         639 min
Histogram: 2 0 0 0 1 0 1 1 0 1
Neighs:        1937.83 ave        2236 max        1490 min
Histogram: 1 0 0 0 1 0 2 0 0 2

Total # of neighbors = 11627
Ave neighs/atom = 22.708984
Neighbor list builds = 1266
Dangerous builds = 0
Total wall time: 0:00:01
